<LesHouchesEvents version="1.0">
<!--
  File written by Pythia8::LHAup on 07 Jun 2015 at 18:26:56
-->
<init>
  11  -11  5.000000e+01  5.000000e+01  0  0  0  0  3  1
  2.505205e-04  0.000000e+00  1.000000e+00   9999
</init>
<event>
     5  9999  1.000000e+00  1.000000e+02  7.825693e-03  1.281252e-01
       11    -1     0     0     0     0  0.0000000000e+00  0.0000000000e+00  5.0000000000e+01  5.0000000000e+01  0.0000000000e+00 0. 9.
      -11    -1     0     0     0     0  0.0000000000e+00  0.0000000000e+00 -5.0000000000e+01  5.0000000000e+01  0.0000000000e+00 0. 9.
       25     2     1     2     0     0  0.0000000000e+00  0.0000000000e+00  0.0000000000e+00  1.0000000000e+02  1.0000000000e+02 0. 9.
       21     1     3     0   101   102 -7.9763749758e+00 -4.1933942701e+01  2.6036933226e+01  5.0000000000e+01  0.0000000000e+00 0. 9.
       21     1     3     0   102   101  7.9763749758e+00  4.1933942701e+01 -2.6036933226e+01  5.0000000000e+01  0.0000000000e+00 0. 9.
#pdf   11  -11  1.000000e+00  1.000000e+00  1.000000e+02  1.000000e+00  1.000000e+00
</event>
<event>
     5  9999  1.000000e+00  1.000000e+02  7.825693e-03  1.281252e-01
       11    -1     0     0     0     0  0.0000000000e+00  0.0000000000e+00  5.0000000000e+01  5.0000000000e+01  0.0000000000e+00 0. 9.
      -11    -1     0     0     0     0  0.0000000000e+00  0.0000000000e+00 -5.0000000000e+01  5.0000000000e+01  0.0000000000e+00 0. 9.
       25     2     1     2     0     0  0.0000000000e+00  0.0000000000e+00  0.0000000000e+00  1.0000000000e+02  1.0000000000e+02 0. 9.
       21     1     3     0   101   102  2.2829643732e+01  3.4905485448e+00  4.4346628259e+01  5.0000000000e+01  0.0000000000e+00 0. 9.
       21     1     3     0   102   101 -2.2829643732e+01 -3.4905485448e+00 -4.4346628259e+01  5.0000000000e+01  0.0000000000e+00 0. 9.
#pdf   11  -11  1.000000e+00  1.000000e+00  1.000000e+02  1.000000e+00  1.000000e+00
</event>
<event>
     5  9999  1.000000e+00  1.000000e+02  7.825693e-03  1.281252e-01
       11    -1     0     0     0     0  0.0000000000e+00  0.0000000000e+00  5.0000000000e+01  5.0000000000e+01  0.0000000000e+00 0. 9.
      -11    -1     0     0     0     0  0.0000000000e+00  0.0000000000e+00 -5.0000000000e+01  5.0000000000e+01  0.0000000000e+00 0. 9.
       25     2     1     2     0     0  0.0000000000e+00  0.0000000000e+00  0.0000000000e+00  1.0000000000e+02  1.0000000000e+02 0. 9.
       21     1     3     0   101   102 -4.6400822930e+01  1.6348471098e+01  8.9269885278e+00  5.0000000000e+01  0.0000000000e+00 0. 9.
       21     1     3     0   102   101  4.6400822930e+01 -1.6348471098e+01 -8.9269885278e+00  5.0000000000e+01  0.0000000000e+00 0. 9.
#pdf   11  -11  1.000000e+00  1.000000e+00  1.000000e+02  1.000000e+00  1.000000e+00
</event>
<event>
     5  9999  1.000000e+00  1.000000e+02  7.825693e-03  1.281252e-01
       11    -1     0     0     0     0  0.0000000000e+00  0.0000000000e+00  5.0000000000e+01  5.0000000000e+01  0.0000000000e+00 0. 9.
      -11    -1     0     0     0     0  0.0000000000e+00  0.0000000000e+00 -5.0000000000e+01  5.0000000000e+01  0.0000000000e+00 0. 9.
       25     2     1     2     0     0  0.0000000000e+00  0.0000000000e+00  0.0000000000e+00  1.0000000000e+02  1.0000000000e+02 0. 9.
       21     1     3     0   101   102  4.7604825201e+01 -1.0950660972e+01 -1.0670690786e+01  5.0000000000e+01  0.0000000000e+00 0. 9.
       21     1     3     0   102   101 -4.7604825201e+01  1.0950660972e+01  1.0670690786e+01  5.0000000000e+01  0.0000000000e+00 0. 9.
#pdf   11  -11  1.000000e+00  1.000000e+00  1.000000e+02  1.000000e+00  1.000000e+00
</event>
<event>
     5  9999  1.000000e+00  1.000000e+02  7.825693e-03  1.281252e-01
       11    -1     0     0     0     0  0.0000000000e+00  0.0000000000e+00  5.0000000000e+01  5.0000000000e+01  0.0000000000e+00 0. 9.
      -11    -1     0     0     0     0  0.0000000000e+00  0.0000000000e+00 -5.0000000000e+01  5.0000000000e+01  0.0000000000e+00 0. 9.
       25     2     1     2     0     0  0.0000000000e+00  0.0000000000e+00  0.0000000000e+00  1.0000000000e+02  1.0000000000e+02 0. 9.
       21     1     3     0   101   102  4.6846001460e+00 -2.9856338480e+01 -3.9832820312e+01  5.0000000000e+01  0.0000000000e+00 0. 9.
       21     1     3     0   102   101 -4.6846001460e+00  2.9856338480e+01  3.9832820312e+01  5.0000000000e+01  0.0000000000e+00 0. 9.
#pdf   11  -11  1.000000e+00  1.000000e+00  1.000000e+02  1.000000e+00  1.000000e+00
</event>
<event>
     5  9999  1.000000e+00  1.000000e+02  7.825693e-03  1.281252e-01
       11    -1     0     0     0     0  0.0000000000e+00  0.0000000000e+00  5.0000000000e+01  5.0000000000e+01  0.0000000000e+00 0. 9.
      -11    -1     0     0     0     0  0.0000000000e+00  0.0000000000e+00 -5.0000000000e+01  5.0000000000e+01  0.0000000000e+00 0. 9.
       25     2     1     2     0     0  0.0000000000e+00  0.0000000000e+00  0.0000000000e+00  1.0000000000e+02  1.0000000000e+02 0. 9.
       21     1     3     0   101   102 -2.4848518610e+00  2.3788035056e+00  4.9881527694e+01  5.0000000000e+01  0.0000000000e+00 0. 9.
       21     1     3     0   102   101  2.4848518610e+00 -2.3788035056e+00 -4.9881527694e+01  5.0000000000e+01  0.0000000000e+00 0. 9.
#pdf   11  -11  1.000000e+00  1.000000e+00  1.000000e+02  1.000000e+00  1.000000e+00
</event>
<event>
     5  9999  1.000000e+00  1.000000e+02  7.825693e-03  1.281252e-01
       11    -1     0     0     0     0  0.0000000000e+00  0.0000000000e+00  5.0000000000e+01  5.0000000000e+01  0.0000000000e+00 0. 9.
      -11    -1     0     0     0     0  0.0000000000e+00  0.0000000000e+00 -5.0000000000e+01  5.0000000000e+01  0.0000000000e+00 0. 9.
       25     2     1     2     0     0  0.0000000000e+00  0.0000000000e+00  0.0000000000e+00  1.0000000000e+02  1.0000000000e+02 0. 9.
       21     1     3     0   101   102  4.0496081359e+00  4.7261445208e+01 -1.5810011727e+01  5.0000000000e+01  0.0000000000e+00 0. 9.
       21     1     3     0   102   101 -4.0496081359e+00 -4.7261445208e+01  1.5810011727e+01  5.0000000000e+01  0.0000000000e+00 0. 9.
#pdf   11  -11  1.000000e+00  1.000000e+00  1.000000e+02  1.000000e+00  1.000000e+00
</event>
<event>
     5  9999  1.000000e+00  1.000000e+02  7.825693e-03  1.281252e-01
       11    -1     0     0     0     0  0.0000000000e+00  0.0000000000e+00  5.0000000000e+01  5.0000000000e+01  0.0000000000e+00 0. 9.
      -11    -1     0     0     0     0  0.0000000000e+00  0.0000000000e+00 -5.0000000000e+01  5.0000000000e+01  0.0000000000e+00 0. 9.
       25     2     1     2     0     0  0.0000000000e+00  0.0000000000e+00  0.0000000000e+00  1.0000000000e+02  1.0000000000e+02 0. 9.
       21     1     3     0   101   102 -8.9484402823e+00 -1.3738988336e+01  4.7235215846e+01  5.0000000000e+01  0.0000000000e+00 0. 9.
       21     1     3     0   102   101  8.9484402823e+00  1.3738988336e+01 -4.7235215846e+01  5.0000000000e+01  0.0000000000e+00 0. 9.
#pdf   11  -11  1.000000e+00  1.000000e+00  1.000000e+02  1.000000e+00  1.000000e+00
</event>
<event>
     5  9999  1.000000e+00  1.000000e+02  7.825693e-03  1.281252e-01
       11    -1     0     0     0     0  0.0000000000e+00  0.0000000000e+00  5.0000000000e+01  5.0000000000e+01  0.0000000000e+00 0. 9.
      -11    -1     0     0     0     0  0.0000000000e+00  0.0000000000e+00 -5.0000000000e+01  5.0000000000e+01  0.0000000000e+00 0. 9.
       25     2     1     2     0     0  0.0000000000e+00  0.0000000000e+00  0.0000000000e+00  1.0000000000e+02  1.0000000000e+02 0. 9.
       21     1     3     0   101   102 -9.9399081968e+00 -4.7640332772e+01  1.1471570008e+01  5.0000000000e+01  0.0000000000e+00 0. 9.
       21     1     3     0   102   101  9.9399081968e+00  4.7640332772e+01 -1.1471570008e+01  5.0000000000e+01  0.0000000000e+00 0. 9.
#pdf   11  -11  1.000000e+00  1.000000e+00  1.000000e+02  1.000000e+00  1.000000e+00
</event>
<event>
     5  9999  1.000000e+00  1.000000e+02  7.825693e-03  1.281252e-01
       11    -1     0     0     0     0  0.0000000000e+00  0.0000000000e+00  5.0000000000e+01  5.0000000000e+01  0.0000000000e+00 0. 9.
      -11    -1     0     0     0     0  0.0000000000e+00  0.0000000000e+00 -5.0000000000e+01  5.0000000000e+01  0.0000000000e+00 0. 9.
       25     2     1     2     0     0  0.0000000000e+00  0.0000000000e+00  0.0000000000e+00  1.0000000000e+02  1.0000000000e+02 0. 9.
       21     1     3     0   101   102  4.0285472213e+00  3.3585147484e+01  3.6821307360e+01  5.0000000000e+01  0.0000000000e+00 0. 9.
       21     1     3     0   102   101 -4.0285472213e+00 -3.3585147484e+01 -3.6821307360e+01  5.0000000000e+01  0.0000000000e+00 0. 9.
#pdf   11  -11  1.000000e+00  1.000000e+00  1.000000e+02  1.000000e+00  1.000000e+00
</event>
<event>
     5  9999  1.000000e+00  1.000000e+02  7.825693e-03  1.281252e-01
       11    -1     0     0     0     0  0.0000000000e+00  0.0000000000e+00  5.0000000000e+01  5.0000000000e+01  0.0000000000e+00 0. 9.
      -11    -1     0     0     0     0  0.0000000000e+00  0.0000000000e+00 -5.0000000000e+01  5.0000000000e+01  0.0000000000e+00 0. 9.
       25     2     1     2     0     0  0.0000000000e+00  0.0000000000e+00  0.0000000000e+00  1.0000000000e+02  1.0000000000e+02 0. 9.
       21     1     3     0   101   102  4.3556390259e+01 -2.3725622751e+01  6.3194693340e+00  5.0000000000e+01  0.0000000000e+00 0. 9.
       21     1     3     0   102   101 -4.3556390259e+01  2.3725622751e+01 -6.3194693340e+00  5.0000000000e+01  0.0000000000e+00 0. 9.
#pdf   11  -11  1.000000e+00  1.000000e+00  1.000000e+02  1.000000e+00  1.000000e+00
</event>
<event>
     5  9999  1.000000e+00  1.000000e+02  7.825693e-03  1.281252e-01
       11    -1     0     0     0     0  0.0000000000e+00  0.0000000000e+00  5.0000000000e+01  5.0000000000e+01  0.0000000000e+00 0. 9.
      -11    -1     0     0     0     0  0.0000000000e+00  0.0000000000e+00 -5.0000000000e+01  5.0000000000e+01  0.0000000000e+00 0. 9.
       25     2     1     2     0     0  0.0000000000e+00  0.0000000000e+00  0.0000000000e+00  1.0000000000e+02  1.0000000000e+02 0. 9.
       21     1     3     0   101   102 -4.7806638157e+01  9.1636419412e+00  1.1425979807e+01  5.0000000000e+01  0.0000000000e+00 0. 9.
       21     1     3     0   102   101  4.7806638157e+01 -9.1636419412e+00 -1.1425979807e+01  5.0000000000e+01  0.0000000000e+00 0. 9.
#pdf   11  -11  1.000000e+00  1.000000e+00  1.000000e+02  1.000000e+00  1.000000e+00
</event>
<event>
     5  9999  1.000000e+00  1.000000e+02  7.825693e-03  1.281252e-01
       11    -1     0     0     0     0  0.0000000000e+00  0.0000000000e+00  5.0000000000e+01  5.0000000000e+01  0.0000000000e+00 0. 9.
      -11    -1     0     0     0     0  0.0000000000e+00  0.0000000000e+00 -5.0000000000e+01  5.0000000000e+01  0.0000000000e+00 0. 9.
       25     2     1     2     0     0  0.0000000000e+00  0.0000000000e+00  0.0000000000e+00  1.0000000000e+02  1.0000000000e+02 0. 9.
       21     1     3     0   101   102 -1.5086864236e+00  4.3563692902e+01 -2.4493438428e+01  5.0000000000e+01  0.0000000000e+00 0. 9.
       21     1     3     0   102   101  1.5086864236e+00 -4.3563692902e+01  2.4493438428e+01  5.0000000000e+01  0.0000000000e+00 0. 9.
#pdf   11  -11  1.000000e+00  1.000000e+00  1.000000e+02  1.000000e+00  1.000000e+00
</event>
<event>
     5  9999  1.000000e+00  1.000000e+02  7.825693e-03  1.281252e-01
       11    -1     0     0     0     0  0.0000000000e+00  0.0000000000e+00  5.0000000000e+01  5.0000000000e+01  0.0000000000e+00 0. 9.
      -11    -1     0     0     0     0  0.0000000000e+00  0.0000000000e+00 -5.0000000000e+01  5.0000000000e+01  0.0000000000e+00 0. 9.
       25     2     1     2     0     0  0.0000000000e+00  0.0000000000e+00  0.0000000000e+00  1.0000000000e+02  1.0000000000e+02 0. 9.
       21     1     3     0   101   102  2.7979521261e+01  4.0472201338e+01  8.8964773301e+00  5.0000000000e+01  0.0000000000e+00 0. 9.
       21     1     3     0   102   101 -2.7979521261e+01 -4.0472201338e+01 -8.8964773301e+00  5.0000000000e+01  0.0000000000e+00 0. 9.
#pdf   11  -11  1.000000e+00  1.000000e+00  1.000000e+02  1.000000e+00  1.000000e+00
</event>
<event>
     5  9999  1.000000e+00  1.000000e+02  7.825693e-03  1.281252e-01
       11    -1     0     0     0     0  0.0000000000e+00  0.0000000000e+00  5.0000000000e+01  5.0000000000e+01  0.0000000000e+00 0. 9.
      -11    -1     0     0     0     0  0.0000000000e+00  0.0000000000e+00 -5.0000000000e+01  5.0000000000e+01  0.0000000000e+00 0. 9.
       25     2     1     2     0     0  0.0000000000e+00  0.0000000000e+00  0.0000000000e+00  1.0000000000e+02  1.0000000000e+02 0. 9.
       21     1     3     0   101   102  2.6382691596e+01 -1.4948622394e+01  3.9755405578e+01  5.0000000000e+01  0.0000000000e+00 0. 9.
       21     1     3     0   102   101 -2.6382691596e+01  1.4948622394e+01 -3.9755405578e+01  5.0000000000e+01  0.0000000000e+00 0. 9.
#pdf   11  -11  1.000000e+00  1.000000e+00  1.000000e+02  1.000000e+00  1.000000e+00
</event>
<event>
     5  9999  1.000000e+00  1.000000e+02  7.825693e-03  1.281252e-01
       11    -1     0     0     0     0  0.0000000000e+00  0.0000000000e+00  5.0000000000e+01  5.0000000000e+01  0.0000000000e+00 0. 9.
      -11    -1     0     0     0     0  0.0000000000e+00  0.0000000000e+00 -5.0000000000e+01  5.0000000000e+01  0.0000000000e+00 0. 9.
       25     2     1     2     0     0  0.0000000000e+00  0.0000000000e+00  0.0000000000e+00  1.0000000000e+02  1.0000000000e+02 0. 9.
       21     1     3     0   101   102 -2.6232737599e+00  3.8651074277e+01  3.1610328882e+01  5.0000000000e+01  0.0000000000e+00 0. 9.
       21     1     3     0   102   101  2.6232737599e+00 -3.8651074277e+01 -3.1610328882e+01  5.0000000000e+01  0.0000000000e+00 0. 9.
#pdf   11  -11  1.000000e+00  1.000000e+00  1.000000e+02  1.000000e+00  1.000000e+00
</event>
<event>
     5  9999  1.000000e+00  1.000000e+02  7.825693e-03  1.281252e-01
       11    -1     0     0     0     0  0.0000000000e+00  0.0000000000e+00  5.0000000000e+01  5.0000000000e+01  0.0000000000e+00 0. 9.
      -11    -1     0     0     0     0  0.0000000000e+00  0.0000000000e+00 -5.0000000000e+01  5.0000000000e+01  0.0000000000e+00 0. 9.
       25     2     1     2     0     0  0.0000000000e+00  0.0000000000e+00  0.0000000000e+00  1.0000000000e+02  1.0000000000e+02 0. 9.
       21     1     3     0   101   102  4.5399134286e+00  2.4834753246e+01 -4.3158130373e+01  5.0000000000e+01  0.0000000000e+00 0. 9.
       21     1     3     0   102   101 -4.5399134286e+00 -2.4834753246e+01  4.3158130373e+01  5.0000000000e+01  0.0000000000e+00 0. 9.
#pdf   11  -11  1.000000e+00  1.000000e+00  1.000000e+02  1.000000e+00  1.000000e+00
</event>
<event>
     5  9999  1.000000e+00  1.000000e+02  7.825693e-03  1.281252e-01
       11    -1     0     0     0     0  0.0000000000e+00  0.0000000000e+00  5.0000000000e+01  5.0000000000e+01  0.0000000000e+00 0. 9.
      -11    -1     0     0     0     0  0.0000000000e+00  0.0000000000e+00 -5.0000000000e+01  5.0000000000e+01  0.0000000000e+00 0. 9.
       25     2     1     2     0     0  0.0000000000e+00  0.0000000000e+00  0.0000000000e+00  1.0000000000e+02  1.0000000000e+02 0. 9.
       21     1     3     0   101   102 -1.6536822113e+01  4.3352763012e+01  1.8629853826e+01  5.0000000000e+01  0.0000000000e+00 0. 9.
       21     1     3     0   102   101  1.6536822113e+01 -4.3352763012e+01 -1.8629853826e+01  5.0000000000e+01  0.0000000000e+00 0. 9.
#pdf   11  -11  1.000000e+00  1.000000e+00  1.000000e+02  1.000000e+00  1.000000e+00
</event>
<event>
     5  9999  1.000000e+00  1.000000e+02  7.825693e-03  1.281252e-01
       11    -1     0     0     0     0  0.0000000000e+00  0.0000000000e+00  5.0000000000e+01  5.0000000000e+01  0.0000000000e+00 0. 9.
      -11    -1     0     0     0     0  0.0000000000e+00  0.0000000000e+00 -5.0000000000e+01  5.0000000000e+01  0.0000000000e+00 0. 9.
       25     2     1     2     0     0  0.0000000000e+00  0.0000000000e+00  0.0000000000e+00  1.0000000000e+02  1.0000000000e+02 0. 9.
       21     1     3     0   101   102 -7.2501295248e+00  4.8377553382e+01  1.0346397953e+01  5.0000000000e+01  0.0000000000e+00 0. 9.
       21     1     3     0   102   101  7.2501295248e+00 -4.8377553382e+01 -1.0346397953e+01  5.0000000000e+01  0.0000000000e+00 0. 9.
#pdf   11  -11  1.000000e+00  1.000000e+00  1.000000e+02  1.000000e+00  1.000000e+00
</event>
<event>
     5  9999  1.000000e+00  1.000000e+02  7.825693e-03  1.281252e-01
       11    -1     0     0     0     0  0.0000000000e+00  0.0000000000e+00  5.0000000000e+01  5.0000000000e+01  0.0000000000e+00 0. 9.
      -11    -1     0     0     0     0  0.0000000000e+00  0.0000000000e+00 -5.0000000000e+01  5.0000000000e+01  0.0000000000e+00 0. 9.
       25     2     1     2     0     0  0.0000000000e+00  0.0000000000e+00  0.0000000000e+00  1.0000000000e+02  1.0000000000e+02 0. 9.
       21     1     3     0   101   102 -4.3033307858e+01 -1.8318539509e+01 -1.7679522761e+01  5.0000000000e+01  0.0000000000e+00 0. 9.
       21     1     3     0   102   101  4.3033307858e+01  1.8318539509e+01  1.7679522761e+01  5.0000000000e+01  0.0000000000e+00 0. 9.
#pdf   11  -11  1.000000e+00  1.000000e+00  1.000000e+02  1.000000e+00  1.000000e+00
</event>
<event>
     5  9999  1.000000e+00  1.000000e+02  7.825693e-03  1.281252e-01
       11    -1     0     0     0     0  0.0000000000e+00  0.0000000000e+00  5.0000000000e+01  5.0000000000e+01  0.0000000000e+00 0. 9.
      -11    -1     0     0     0     0  0.0000000000e+00  0.0000000000e+00 -5.0000000000e+01  5.0000000000e+01  0.0000000000e+00 0. 9.
       25     2     1     2     0     0  0.0000000000e+00  0.0000000000e+00  0.0000000000e+00  1.0000000000e+02  1.0000000000e+02 0. 9.
       21     1     3     0   101   102  2.6043161897e+01  2.6103329582e+01  3.3769363381e+01  5.0000000000e+01  0.0000000000e+00 0. 9.
       21     1     3     0   102   101 -2.6043161897e+01 -2.6103329582e+01 -3.3769363381e+01  5.0000000000e+01  0.0000000000e+00 0. 9.
#pdf   11  -11  1.000000e+00  1.000000e+00  1.000000e+02  1.000000e+00  1.000000e+00
</event>
<event>
     5  9999  1.000000e+00  1.000000e+02  7.825693e-03  1.281252e-01
       11    -1     0     0     0     0  0.0000000000e+00  0.0000000000e+00  5.0000000000e+01  5.0000000000e+01  0.0000000000e+00 0. 9.
      -11    -1     0     0     0     0  0.0000000000e+00  0.0000000000e+00 -5.0000000000e+01  5.0000000000e+01  0.0000000000e+00 0. 9.
       25     2     1     2     0     0  0.0000000000e+00  0.0000000000e+00  0.0000000000e+00  1.0000000000e+02  1.0000000000e+02 0. 9.
       21     1     3     0   101   102 -1.0689102258e+01 -8.3794411756e+00 -4.8119934108e+01  5.0000000000e+01  0.0000000000e+00 0. 9.
       21     1     3     0   102   101  1.0689102258e+01  8.3794411756e+00  4.8119934108e+01  5.0000000000e+01  0.0000000000e+00 0. 9.
#pdf   11  -11  1.000000e+00  1.000000e+00  1.000000e+02  1.000000e+00  1.000000e+00
</event>
<event>
     5  9999  1.000000e+00  1.000000e+02  7.825693e-03  1.281252e-01
       11    -1     0     0     0     0  0.0000000000e+00  0.0000000000e+00  5.0000000000e+01  5.0000000000e+01  0.0000000000e+00 0. 9.
      -11    -1     0     0     0     0  0.0000000000e+00  0.0000000000e+00 -5.0000000000e+01  5.0000000000e+01  0.0000000000e+00 0. 9.
       25     2     1     2     0     0  0.0000000000e+00  0.0000000000e+00  0.0000000000e+00  1.0000000000e+02  1.0000000000e+02 0. 9.
       21     1     3     0   101   102  4.5372606087e+01  2.0405159983e+01 -4.9956043628e+00  5.0000000000e+01  0.0000000000e+00 0. 9.
       21     1     3     0   102   101 -4.5372606087e+01 -2.0405159983e+01  4.9956043628e+00  5.0000000000e+01  0.0000000000e+00 0. 9.
#pdf   11  -11  1.000000e+00  1.000000e+00  1.000000e+02  1.000000e+00  1.000000e+00
</event>
<event>
     5  9999  1.000000e+00  1.000000e+02  7.825693e-03  1.281252e-01
       11    -1     0     0     0     0  0.0000000000e+00  0.0000000000e+00  5.0000000000e+01  5.0000000000e+01  0.0000000000e+00 0. 9.
      -11    -1     0     0     0     0  0.0000000000e+00  0.0000000000e+00 -5.0000000000e+01  5.0000000000e+01  0.0000000000e+00 0. 9.
       25     2     1     2     0     0  0.0000000000e+00  0.0000000000e+00  0.0000000000e+00  1.0000000000e+02  1.0000000000e+02 0. 9.
       21     1     3     0   101   102 -6.6178141001e+00 -3.8300341556e+01 -3.1452954921e+01  5.0000000000e+01  0.0000000000e+00 0. 9.
       21     1     3     0   102   101  6.6178141001e+00  3.8300341556e+01  3.1452954921e+01  5.0000000000e+01  0.0000000000e+00 0. 9.
#pdf   11  -11  1.000000e+00  1.000000e+00  1.000000e+02  1.000000e+00  1.000000e+00
</event>
<event>
     5  9999  1.000000e+00  1.000000e+02  7.825693e-03  1.281252e-01
       11    -1     0     0     0     0  0.0000000000e+00  0.0000000000e+00  5.0000000000e+01  5.0000000000e+01  0.0000000000e+00 0. 9.
      -11    -1     0     0     0     0  0.0000000000e+00  0.0000000000e+00 -5.0000000000e+01  5.0000000000e+01  0.0000000000e+00 0. 9.
       25     2     1     2     0     0  0.0000000000e+00  0.0000000000e+00  0.0000000000e+00  1.0000000000e+02  1.0000000000e+02 0. 9.
       21     1     3     0   101   102 -1.6861141435e+01 -4.0545535143e+01  2.3911534652e+01  5.0000000000e+01  0.0000000000e+00 0. 9.
       21     1     3     0   102   101  1.6861141435e+01  4.0545535143e+01 -2.3911534652e+01  5.0000000000e+01  0.0000000000e+00 0. 9.
#pdf   11  -11  1.000000e+00  1.000000e+00  1.000000e+02  1.000000e+00  1.000000e+00
</event>
<event>
     5  9999  1.000000e+00  1.000000e+02  7.825693e-03  1.281252e-01
       11    -1     0     0     0     0  0.0000000000e+00  0.0000000000e+00  5.0000000000e+01  5.0000000000e+01  0.0000000000e+00 0. 9.
      -11    -1     0     0     0     0  0.0000000000e+00  0.0000000000e+00 -5.0000000000e+01  5.0000000000e+01  0.0000000000e+00 0. 9.
       25     2     1     2     0     0  0.0000000000e+00  0.0000000000e+00  0.0000000000e+00  1.0000000000e+02  1.0000000000e+02 0. 9.
       21     1     3     0   101   102  1.9479488848e+01 -4.6002309804e+01  2.0825481865e+00  5.0000000000e+01  0.0000000000e+00 0. 9.
       21     1     3     0   102   101 -1.9479488848e+01  4.6002309804e+01 -2.0825481865e+00  5.0000000000e+01  0.0000000000e+00 0. 9.
#pdf   11  -11  1.000000e+00  1.000000e+00  1.000000e+02  1.000000e+00  1.000000e+00
</event>
<event>
     5  9999  1.000000e+00  1.000000e+02  7.825693e-03  1.281252e-01
       11    -1     0     0     0     0  0.0000000000e+00  0.0000000000e+00  5.0000000000e+01  5.0000000000e+01  0.0000000000e+00 0. 9.
      -11    -1     0     0     0     0  0.0000000000e+00  0.0000000000e+00 -5.0000000000e+01  5.0000000000e+01  0.0000000000e+00 0. 9.
       25     2     1     2     0     0  0.0000000000e+00  0.0000000000e+00  0.0000000000e+00  1.0000000000e+02  1.0000000000e+02 0. 9.
       21     1     3     0   101   102 -1.7950863254e+01 -4.3047758196e+01  1.8018241389e+01  5.0000000000e+01  0.0000000000e+00 0. 9.
       21     1     3     0   102   101  1.7950863254e+01  4.3047758196e+01 -1.8018241389e+01  5.0000000000e+01  0.0000000000e+00 0. 9.
#pdf   11  -11  1.000000e+00  1.000000e+00  1.000000e+02  1.000000e+00  1.000000e+00
</event>
<event>
     5  9999  1.000000e+00  1.000000e+02  7.825693e-03  1.281252e-01
       11    -1     0     0     0     0  0.0000000000e+00  0.0000000000e+00  5.0000000000e+01  5.0000000000e+01  0.0000000000e+00 0. 9.
      -11    -1     0     0     0     0  0.0000000000e+00  0.0000000000e+00 -5.0000000000e+01  5.0000000000e+01  0.0000000000e+00 0. 9.
       25     2     1     2     0     0  0.0000000000e+00  0.0000000000e+00  0.0000000000e+00  1.0000000000e+02  1.0000000000e+02 0. 9.
       21     1     3     0   101   102 -4.4975830126e+01 -1.3299387115e+01 -1.7329195216e+01  5.0000000000e+01  0.0000000000e+00 0. 9.
       21     1     3     0   102   101  4.4975830126e+01  1.3299387115e+01  1.7329195216e+01  5.0000000000e+01  0.0000000000e+00 0. 9.
#pdf   11  -11  1.000000e+00  1.000000e+00  1.000000e+02  1.000000e+00  1.000000e+00
</event>
<event>
     5  9999  1.000000e+00  1.000000e+02  7.825693e-03  1.281252e-01
       11    -1     0     0     0     0  0.0000000000e+00  0.0000000000e+00  5.0000000000e+01  5.0000000000e+01  0.0000000000e+00 0. 9.
      -11    -1     0     0     0     0  0.0000000000e+00  0.0000000000e+00 -5.0000000000e+01  5.0000000000e+01  0.0000000000e+00 0. 9.
       25     2     1     2     0     0  0.0000000000e+00  0.0000000000e+00  0.0000000000e+00  1.0000000000e+02  1.0000000000e+02 0. 9.
       21     1     3     0   101   102  4.6873892452e+01  1.4254247447e+01  9.9827168711e+00  5.0000000000e+01  0.0000000000e+00 0. 9.
       21     1     3     0   102   101 -4.6873892452e+01 -1.4254247447e+01 -9.9827168711e+00  5.0000000000e+01  0.0000000000e+00 0. 9.
#pdf   11  -11  1.000000e+00  1.000000e+00  1.000000e+02  1.000000e+00  1.000000e+00
</event>
<event>
     5  9999  1.000000e+00  1.000000e+02  7.825693e-03  1.281252e-01
       11    -1     0     0     0     0  0.0000000000e+00  0.0000000000e+00  5.0000000000e+01  5.0000000000e+01  0.0000000000e+00 0. 9.
      -11    -1     0     0     0     0  0.0000000000e+00  0.0000000000e+00 -5.0000000000e+01  5.0000000000e+01  0.0000000000e+00 0. 9.
       25     2     1     2     0     0  0.0000000000e+00  0.0000000000e+00  0.0000000000e+00  1.0000000000e+02  1.0000000000e+02 0. 9.
       21     1     3     0   101   102 -1.8120028970e+01 -4.5762824471e+01  8.7993435292e+00  5.0000000000e+01  0.0000000000e+00 0. 9.
       21     1     3     0   102   101  1.8120028970e+01  4.5762824471e+01 -8.7993435292e+00  5.0000000000e+01  0.0000000000e+00 0. 9.
#pdf   11  -11  1.000000e+00  1.000000e+00  1.000000e+02  1.000000e+00  1.000000e+00
</event>
<event>
     5  9999  1.000000e+00  1.000000e+02  7.825693e-03  1.281252e-01
       11    -1     0     0     0     0  0.0000000000e+00  0.0000000000e+00  5.0000000000e+01  5.0000000000e+01  0.0000000000e+00 0. 9.
      -11    -1     0     0     0     0  0.0000000000e+00  0.0000000000e+00 -5.0000000000e+01  5.0000000000e+01  0.0000000000e+00 0. 9.
       25     2     1     2     0     0  0.0000000000e+00  0.0000000000e+00  0.0000000000e+00  1.0000000000e+02  1.0000000000e+02 0. 9.
       21     1     3     0   101   102 -4.2211522845e+00 -2.2169946377e+01  4.4616985006e+01  5.0000000000e+01  0.0000000000e+00 0. 9.
       21     1     3     0   102   101  4.2211522845e+00  2.2169946377e+01 -4.4616985006e+01  5.0000000000e+01  0.0000000000e+00 0. 9.
#pdf   11  -11  1.000000e+00  1.000000e+00  1.000000e+02  1.000000e+00  1.000000e+00
</event>
<event>
     5  9999  1.000000e+00  1.000000e+02  7.825693e-03  1.281252e-01
       11    -1     0     0     0     0  0.0000000000e+00  0.0000000000e+00  5.0000000000e+01  5.0000000000e+01  0.0000000000e+00 0. 9.
      -11    -1     0     0     0     0  0.0000000000e+00  0.0000000000e+00 -5.0000000000e+01  5.0000000000e+01  0.0000000000e+00 0. 9.
       25     2     1     2     0     0  0.0000000000e+00  0.0000000000e+00  0.0000000000e+00  1.0000000000e+02  1.0000000000e+02 0. 9.
       21     1     3     0   101   102  4.9508658659e+01 -6.7824375305e+00  1.7003702234e+00  5.0000000000e+01  0.0000000000e+00 0. 9.
       21     1     3     0   102   101 -4.9508658659e+01  6.7824375305e+00 -1.7003702234e+00  5.0000000000e+01  0.0000000000e+00 0. 9.
#pdf   11  -11  1.000000e+00  1.000000e+00  1.000000e+02  1.000000e+00  1.000000e+00
</event>
<event>
     5  9999  1.000000e+00  1.000000e+02  7.825693e-03  1.281252e-01
       11    -1     0     0     0     0  0.0000000000e+00  0.0000000000e+00  5.0000000000e+01  5.0000000000e+01  0.0000000000e+00 0. 9.
      -11    -1     0     0     0     0  0.0000000000e+00  0.0000000000e+00 -5.0000000000e+01  5.0000000000e+01  0.0000000000e+00 0. 9.
       25     2     1     2     0     0  0.0000000000e+00  0.0000000000e+00  0.0000000000e+00  1.0000000000e+02  1.0000000000e+02 0. 9.
       21     1     3     0   101   102  4.6284166626e+01  1.8390836021e+01  4.4218853717e+00  5.0000000000e+01  0.0000000000e+00 0. 9.
       21     1     3     0   102   101 -4.6284166626e+01 -1.8390836021e+01 -4.4218853717e+00  5.0000000000e+01  0.0000000000e+00 0. 9.
#pdf   11  -11  1.000000e+00  1.000000e+00  1.000000e+02  1.000000e+00  1.000000e+00
</event>
<event>
     5  9999  1.000000e+00  1.000000e+02  7.825693e-03  1.281252e-01
       11    -1     0     0     0     0  0.0000000000e+00  0.0000000000e+00  5.0000000000e+01  5.0000000000e+01  0.0000000000e+00 0. 9.
      -11    -1     0     0     0     0  0.0000000000e+00  0.0000000000e+00 -5.0000000000e+01  5.0000000000e+01  0.0000000000e+00 0. 9.
       25     2     1     2     0     0  0.0000000000e+00  0.0000000000e+00  0.0000000000e+00  1.0000000000e+02  1.0000000000e+02 0. 9.
       21     1     3     0   101   102  3.8224677918e+01 -2.1622954546e+01  2.3902339524e+01  5.0000000000e+01  0.0000000000e+00 0. 9.
       21     1     3     0   102   101 -3.8224677918e+01  2.1622954546e+01 -2.3902339524e+01  5.0000000000e+01  0.0000000000e+00 0. 9.
#pdf   11  -11  1.000000e+00  1.000000e+00  1.000000e+02  1.000000e+00  1.000000e+00
</event>
<event>
     5  9999  1.000000e+00  1.000000e+02  7.825693e-03  1.281252e-01
       11    -1     0     0     0     0  0.0000000000e+00  0.0000000000e+00  5.0000000000e+01  5.0000000000e+01  0.0000000000e+00 0. 9.
      -11    -1     0     0     0     0  0.0000000000e+00  0.0000000000e+00 -5.0000000000e+01  5.0000000000e+01  0.0000000000e+00 0. 9.
       25     2     1     2     0     0  0.0000000000e+00  0.0000000000e+00  0.0000000000e+00  1.0000000000e+02  1.0000000000e+02 0. 9.
       21     1     3     0   101   102  2.0387272731e+01 -7.3911690324e+00 -4.5052521915e+01  5.0000000000e+01  0.0000000000e+00 0. 9.
       21     1     3     0   102   101 -2.0387272731e+01  7.3911690324e+00  4.5052521915e+01  5.0000000000e+01  0.0000000000e+00 0. 9.
#pdf   11  -11  1.000000e+00  1.000000e+00  1.000000e+02  1.000000e+00  1.000000e+00
</event>
<event>
     5  9999  1.000000e+00  1.000000e+02  7.825693e-03  1.281252e-01
       11    -1     0     0     0     0  0.0000000000e+00  0.0000000000e+00  5.0000000000e+01  5.0000000000e+01  0.0000000000e+00 0. 9.
      -11    -1     0     0     0     0  0.0000000000e+00  0.0000000000e+00 -5.0000000000e+01  5.0000000000e+01  0.0000000000e+00 0. 9.
       25     2     1     2     0     0  0.0000000000e+00  0.0000000000e+00  0.0000000000e+00  1.0000000000e+02  1.0000000000e+02 0. 9.
       21     1     3     0   101   102  3.6032517731e+01  3.1970509030e+01  1.3399411120e+01  5.0000000000e+01  0.0000000000e+00 0. 9.
       21     1     3     0   102   101 -3.6032517731e+01 -3.1970509030e+01 -1.3399411120e+01  5.0000000000e+01  0.0000000000e+00 0. 9.
#pdf   11  -11  1.000000e+00  1.000000e+00  1.000000e+02  1.000000e+00  1.000000e+00
</event>
<event>
     5  9999  1.000000e+00  1.000000e+02  7.825693e-03  1.281252e-01
       11    -1     0     0     0     0  0.0000000000e+00  0.0000000000e+00  5.0000000000e+01  5.0000000000e+01  0.0000000000e+00 0. 9.
      -11    -1     0     0     0     0  0.0000000000e+00  0.0000000000e+00 -5.0000000000e+01  5.0000000000e+01  0.0000000000e+00 0. 9.
       25     2     1     2     0     0  0.0000000000e+00  0.0000000000e+00  0.0000000000e+00  1.0000000000e+02  1.0000000000e+02 0. 9.
       21     1     3     0   101   102  4.2418937315e+01  7.4972633198e+00  2.5385523430e+01  5.0000000000e+01  0.0000000000e+00 0. 9.
       21     1     3     0   102   101 -4.2418937315e+01 -7.4972633198e+00 -2.5385523430e+01  5.0000000000e+01  0.0000000000e+00 0. 9.
#pdf   11  -11  1.000000e+00  1.000000e+00  1.000000e+02  1.000000e+00  1.000000e+00
</event>
<event>
     5  9999  1.000000e+00  1.000000e+02  7.825693e-03  1.281252e-01
       11    -1     0     0     0     0  0.0000000000e+00  0.0000000000e+00  5.0000000000e+01  5.0000000000e+01  0.0000000000e+00 0. 9.
      -11    -1     0     0     0     0  0.0000000000e+00  0.0000000000e+00 -5.0000000000e+01  5.0000000000e+01  0.0000000000e+00 0. 9.
       25     2     1     2     0     0  0.0000000000e+00  0.0000000000e+00  0.0000000000e+00  1.0000000000e+02  1.0000000000e+02 0. 9.
       21     1     3     0   101   102  1.4316834576e+01 -3.2228429410e+01  3.5445120757e+01  5.0000000000e+01  0.0000000000e+00 0. 9.
       21     1     3     0   102   101 -1.4316834576e+01  3.2228429410e+01 -3.5445120757e+01  5.0000000000e+01  0.0000000000e+00 0. 9.
#pdf   11  -11  1.000000e+00  1.000000e+00  1.000000e+02  1.000000e+00  1.000000e+00
</event>
<event>
     5  9999  1.000000e+00  1.000000e+02  7.825693e-03  1.281252e-01
       11    -1     0     0     0     0  0.0000000000e+00  0.0000000000e+00  5.0000000000e+01  5.0000000000e+01  0.0000000000e+00 0. 9.
      -11    -1     0     0     0     0  0.0000000000e+00  0.0000000000e+00 -5.0000000000e+01  5.0000000000e+01  0.0000000000e+00 0. 9.
       25     2     1     2     0     0  0.0000000000e+00  0.0000000000e+00  0.0000000000e+00  1.0000000000e+02  1.0000000000e+02 0. 9.
       21     1     3     0   101   102 -8.2633439965e+00 -1.4533495999e+01  4.7122124740e+01  5.0000000000e+01  0.0000000000e+00 0. 9.
       21     1     3     0   102   101  8.2633439965e+00  1.4533495999e+01 -4.7122124740e+01  5.0000000000e+01  0.0000000000e+00 0. 9.
#pdf   11  -11  1.000000e+00  1.000000e+00  1.000000e+02  1.000000e+00  1.000000e+00
</event>
<event>
     5  9999  1.000000e+00  1.000000e+02  7.825693e-03  1.281252e-01
       11    -1     0     0     0     0  0.0000000000e+00  0.0000000000e+00  5.0000000000e+01  5.0000000000e+01  0.0000000000e+00 0. 9.
      -11    -1     0     0     0     0  0.0000000000e+00  0.0000000000e+00 -5.0000000000e+01  5.0000000000e+01  0.0000000000e+00 0. 9.
       25     2     1     2     0     0  0.0000000000e+00  0.0000000000e+00  0.0000000000e+00  1.0000000000e+02  1.0000000000e+02 0. 9.
       21     1     3     0   101   102  4.4787248119e+00  2.5355371259e+01 -4.2860776619e+01  5.0000000000e+01  0.0000000000e+00 0. 9.
       21     1     3     0   102   101 -4.4787248119e+00 -2.5355371259e+01  4.2860776619e+01  5.0000000000e+01  0.0000000000e+00 0. 9.
#pdf   11  -11  1.000000e+00  1.000000e+00  1.000000e+02  1.000000e+00  1.000000e+00
</event>
<event>
     5  9999  1.000000e+00  1.000000e+02  7.825693e-03  1.281252e-01
       11    -1     0     0     0     0  0.0000000000e+00  0.0000000000e+00  5.0000000000e+01  5.0000000000e+01  0.0000000000e+00 0. 9.
      -11    -1     0     0     0     0  0.0000000000e+00  0.0000000000e+00 -5.0000000000e+01  5.0000000000e+01  0.0000000000e+00 0. 9.
       25     2     1     2     0     0  0.0000000000e+00  0.0000000000e+00  0.0000000000e+00  1.0000000000e+02  1.0000000000e+02 0. 9.
       21     1     3     0   101   102 -2.7725111087e+01 -2.5883765519e+01  3.2578350139e+01  5.0000000000e+01  0.0000000000e+00 0. 9.
       21     1     3     0   102   101  2.7725111087e+01  2.5883765519e+01 -3.2578350139e+01  5.0000000000e+01  0.0000000000e+00 0. 9.
#pdf   11  -11  1.000000e+00  1.000000e+00  1.000000e+02  1.000000e+00  1.000000e+00
</event>
<event>
     5  9999  1.000000e+00  1.000000e+02  7.825693e-03  1.281252e-01
       11    -1     0     0     0     0  0.0000000000e+00  0.0000000000e+00  5.0000000000e+01  5.0000000000e+01  0.0000000000e+00 0. 9.
      -11    -1     0     0     0     0  0.0000000000e+00  0.0000000000e+00 -5.0000000000e+01  5.0000000000e+01  0.0000000000e+00 0. 9.
       25     2     1     2     0     0  0.0000000000e+00  0.0000000000e+00  0.0000000000e+00  1.0000000000e+02  1.0000000000e+02 0. 9.
       21     1     3     0   101   102 -1.2162905749e+01  3.3062416818e+01  3.5481548979e+01  5.0000000000e+01  0.0000000000e+00 0. 9.
       21     1     3     0   102   101  1.2162905749e+01 -3.3062416818e+01 -3.5481548979e+01  5.0000000000e+01  0.0000000000e+00 0. 9.
#pdf   11  -11  1.000000e+00  1.000000e+00  1.000000e+02  1.000000e+00  1.000000e+00
</event>
<event>
     5  9999  1.000000e+00  1.000000e+02  7.825693e-03  1.281252e-01
       11    -1     0     0     0     0  0.0000000000e+00  0.0000000000e+00  5.0000000000e+01  5.0000000000e+01  0.0000000000e+00 0. 9.
      -11    -1     0     0     0     0  0.0000000000e+00  0.0000000000e+00 -5.0000000000e+01  5.0000000000e+01  0.0000000000e+00 0. 9.
       25     2     1     2     0     0  0.0000000000e+00  0.0000000000e+00  0.0000000000e+00  1.0000000000e+02  1.0000000000e+02 0. 9.
       21     1     3     0   101   102 -4.5458003702e+01 -5.0519763223e+00  2.0200184026e+01  5.0000000000e+01  0.0000000000e+00 0. 9.
       21     1     3     0   102   101  4.5458003702e+01  5.0519763223e+00 -2.0200184026e+01  5.0000000000e+01  0.0000000000e+00 0. 9.
#pdf   11  -11  1.000000e+00  1.000000e+00  1.000000e+02  1.000000e+00  1.000000e+00
</event>
<event>
     5  9999  1.000000e+00  1.000000e+02  7.825693e-03  1.281252e-01
       11    -1     0     0     0     0  0.0000000000e+00  0.0000000000e+00  5.0000000000e+01  5.0000000000e+01  0.0000000000e+00 0. 9.
      -11    -1     0     0     0     0  0.0000000000e+00  0.0000000000e+00 -5.0000000000e+01  5.0000000000e+01  0.0000000000e+00 0. 9.
       25     2     1     2     0     0  0.0000000000e+00  0.0000000000e+00  0.0000000000e+00  1.0000000000e+02  1.0000000000e+02 0. 9.
       21     1     3     0   101   102  4.3481098797e+01  1.5181632375e+01 -1.9465664281e+01  5.0000000000e+01  0.0000000000e+00 0. 9.
       21     1     3     0   102   101 -4.3481098797e+01 -1.5181632375e+01  1.9465664281e+01  5.0000000000e+01  0.0000000000e+00 0. 9.
#pdf   11  -11  1.000000e+00  1.000000e+00  1.000000e+02  1.000000e+00  1.000000e+00
</event>
<event>
     5  9999  1.000000e+00  1.000000e+02  7.825693e-03  1.281252e-01
       11    -1     0     0     0     0  0.0000000000e+00  0.0000000000e+00  5.0000000000e+01  5.0000000000e+01  0.0000000000e+00 0. 9.
      -11    -1     0     0     0     0  0.0000000000e+00  0.0000000000e+00 -5.0000000000e+01  5.0000000000e+01  0.0000000000e+00 0. 9.
       25     2     1     2     0     0  0.0000000000e+00  0.0000000000e+00  0.0000000000e+00  1.0000000000e+02  1.0000000000e+02 0. 9.
       21     1     3     0   101   102 -4.1641453130e+01  1.0740286889e+01 -2.5507560032e+01  5.0000000000e+01  0.0000000000e+00 0. 9.
       21     1     3     0   102   101  4.1641453130e+01 -1.0740286889e+01  2.5507560032e+01  5.0000000000e+01  0.0000000000e+00 0. 9.
#pdf   11  -11  1.000000e+00  1.000000e+00  1.000000e+02  1.000000e+00  1.000000e+00
</event>
<event>
     5  9999  1.000000e+00  1.000000e+02  7.825693e-03  1.281252e-01
       11    -1     0     0     0     0  0.0000000000e+00  0.0000000000e+00  5.0000000000e+01  5.0000000000e+01  0.0000000000e+00 0. 9.
      -11    -1     0     0     0     0  0.0000000000e+00  0.0000000000e+00 -5.0000000000e+01  5.0000000000e+01  0.0000000000e+00 0. 9.
       25     2     1     2     0     0  0.0000000000e+00  0.0000000000e+00  0.0000000000e+00  1.0000000000e+02  1.0000000000e+02 0. 9.
       21     1     3     0   101   102 -4.0467086312e+01  1.4507447305e+01  2.5533289998e+01  5.0000000000e+01  0.0000000000e+00 0. 9.
       21     1     3     0   102   101  4.0467086312e+01 -1.4507447305e+01 -2.5533289998e+01  5.0000000000e+01  0.0000000000e+00 0. 9.
#pdf   11  -11  1.000000e+00  1.000000e+00  1.000000e+02  1.000000e+00  1.000000e+00
</event>
<event>
     5  9999  1.000000e+00  1.000000e+02  7.825693e-03  1.281252e-01
       11    -1     0     0     0     0  0.0000000000e+00  0.0000000000e+00  5.0000000000e+01  5.0000000000e+01  0.0000000000e+00 0. 9.
      -11    -1     0     0     0     0  0.0000000000e+00  0.0000000000e+00 -5.0000000000e+01  5.0000000000e+01  0.0000000000e+00 0. 9.
       25     2     1     2     0     0  0.0000000000e+00  0.0000000000e+00  0.0000000000e+00  1.0000000000e+02  1.0000000000e+02 0. 9.
       21     1     3     0   101   102 -9.4504382081e+00  4.6572597610e+01 -1.5546136803e+01  5.0000000000e+01  0.0000000000e+00 0. 9.
       21     1     3     0   102   101  9.4504382081e+00 -4.6572597610e+01  1.5546136803e+01  5.0000000000e+01  0.0000000000e+00 0. 9.
#pdf   11  -11  1.000000e+00  1.000000e+00  1.000000e+02  1.000000e+00  1.000000e+00
</event>
<event>
     5  9999  1.000000e+00  1.000000e+02  7.825693e-03  1.281252e-01
       11    -1     0     0     0     0  0.0000000000e+00  0.0000000000e+00  5.0000000000e+01  5.0000000000e+01  0.0000000000e+00 0. 9.
      -11    -1     0     0     0     0  0.0000000000e+00  0.0000000000e+00 -5.0000000000e+01  5.0000000000e+01  0.0000000000e+00 0. 9.
       25     2     1     2     0     0  0.0000000000e+00  0.0000000000e+00  0.0000000000e+00  1.0000000000e+02  1.0000000000e+02 0. 9.
       21     1     3     0   101   102 -3.2942630972e+00  4.3902309844e+01 -2.3700949790e+01  5.0000000000e+01  0.0000000000e+00 0. 9.
       21     1     3     0   102   101  3.2942630972e+00 -4.3902309844e+01  2.3700949790e+01  5.0000000000e+01  0.0000000000e+00 0. 9.
#pdf   11  -11  1.000000e+00  1.000000e+00  1.000000e+02  1.000000e+00  1.000000e+00
</event>
<event>
     5  9999  1.000000e+00  1.000000e+02  7.825693e-03  1.281252e-01
       11    -1     0     0     0     0  0.0000000000e+00  0.0000000000e+00  5.0000000000e+01  5.0000000000e+01  0.0000000000e+00 0. 9.
      -11    -1     0     0     0     0  0.0000000000e+00  0.0000000000e+00 -5.0000000000e+01  5.0000000000e+01  0.0000000000e+00 0. 9.
       25     2     1     2     0     0  0.0000000000e+00  0.0000000000e+00  0.0000000000e+00  1.0000000000e+02  1.0000000000e+02 0. 9.
       21     1     3     0   101   102 -4.9552833984e+01 -5.6567314531e+00  3.5380832934e+00  5.0000000000e+01  0.0000000000e+00 0. 9.
       21     1     3     0   102   101  4.9552833984e+01  5.6567314531e+00 -3.5380832934e+00  5.0000000000e+01  0.0000000000e+00 0. 9.
#pdf   11  -11  1.000000e+00  1.000000e+00  1.000000e+02  1.000000e+00  1.000000e+00
</event>
<event>
     5  9999  1.000000e+00  1.000000e+02  7.825693e-03  1.281252e-01
       11    -1     0     0     0     0  0.0000000000e+00  0.0000000000e+00  5.0000000000e+01  5.0000000000e+01  0.0000000000e+00 0. 9.
      -11    -1     0     0     0     0  0.0000000000e+00  0.0000000000e+00 -5.0000000000e+01  5.0000000000e+01  0.0000000000e+00 0. 9.
       25     2     1     2     0     0  0.0000000000e+00  0.0000000000e+00  0.0000000000e+00  1.0000000000e+02  1.0000000000e+02 0. 9.
       21     1     3     0   101   102  3.5252618545e+01  1.3936115100e+01  3.2604257109e+01  5.0000000000e+01  0.0000000000e+00 0. 9.
       21     1     3     0   102   101 -3.5252618545e+01 -1.3936115100e+01 -3.2604257109e+01  5.0000000000e+01  0.0000000000e+00 0. 9.
#pdf   11  -11  1.000000e+00  1.000000e+00  1.000000e+02  1.000000e+00  1.000000e+00
</event>
<event>
     5  9999  1.000000e+00  1.000000e+02  7.825693e-03  1.281252e-01
       11    -1     0     0     0     0  0.0000000000e+00  0.0000000000e+00  5.0000000000e+01  5.0000000000e+01  0.0000000000e+00 0. 9.
      -11    -1     0     0     0     0  0.0000000000e+00  0.0000000000e+00 -5.0000000000e+01  5.0000000000e+01  0.0000000000e+00 0. 9.
       25     2     1     2     0     0  0.0000000000e+00  0.0000000000e+00  0.0000000000e+00  1.0000000000e+02  1.0000000000e+02 0. 9.
       21     1     3     0   101   102 -2.7593838965e+01 -2.7678308109e+01  3.1184792951e+01  5.0000000000e+01  0.0000000000e+00 0. 9.
       21     1     3     0   102   101  2.7593838965e+01  2.7678308109e+01 -3.1184792951e+01  5.0000000000e+01  0.0000000000e+00 0. 9.
#pdf   11  -11  1.000000e+00  1.000000e+00  1.000000e+02  1.000000e+00  1.000000e+00
</event>
<event>
     5  9999  1.000000e+00  1.000000e+02  7.825693e-03  1.281252e-01
       11    -1     0     0     0     0  0.0000000000e+00  0.0000000000e+00  5.0000000000e+01  5.0000000000e+01  0.0000000000e+00 0. 9.
      -11    -1     0     0     0     0  0.0000000000e+00  0.0000000000e+00 -5.0000000000e+01  5.0000000000e+01  0.0000000000e+00 0. 9.
       25     2     1     2     0     0  0.0000000000e+00  0.0000000000e+00  0.0000000000e+00  1.0000000000e+02  1.0000000000e+02 0. 9.
       21     1     3     0   101   102  3.1280703522e+00  4.9865259957e+01 -1.9159919824e+00  5.0000000000e+01  0.0000000000e+00 0. 9.
       21     1     3     0   102   101 -3.1280703522e+00 -4.9865259957e+01  1.9159919824e+00  5.0000000000e+01  0.0000000000e+00 0. 9.
#pdf   11  -11  1.000000e+00  1.000000e+00  1.000000e+02  1.000000e+00  1.000000e+00
</event>
<event>
     5  9999  1.000000e+00  1.000000e+02  7.825693e-03  1.281252e-01
       11    -1     0     0     0     0  0.0000000000e+00  0.0000000000e+00  5.0000000000e+01  5.0000000000e+01  0.0000000000e+00 0. 9.
      -11    -1     0     0     0     0  0.0000000000e+00  0.0000000000e+00 -5.0000000000e+01  5.0000000000e+01  0.0000000000e+00 0. 9.
       25     2     1     2     0     0  0.0000000000e+00  0.0000000000e+00  0.0000000000e+00  1.0000000000e+02  1.0000000000e+02 0. 9.
       21     1     3     0   101   102 -2.1522417647e+01 -1.6566090181e+01 -4.1980354867e+01  5.0000000000e+01  0.0000000000e+00 0. 9.
       21     1     3     0   102   101  2.1522417647e+01  1.6566090181e+01  4.1980354867e+01  5.0000000000e+01  0.0000000000e+00 0. 9.
#pdf   11  -11  1.000000e+00  1.000000e+00  1.000000e+02  1.000000e+00  1.000000e+00
</event>
<event>
     5  9999  1.000000e+00  1.000000e+02  7.825693e-03  1.281252e-01
       11    -1     0     0     0     0  0.0000000000e+00  0.0000000000e+00  5.0000000000e+01  5.0000000000e+01  0.0000000000e+00 0. 9.
      -11    -1     0     0     0     0  0.0000000000e+00  0.0000000000e+00 -5.0000000000e+01  5.0000000000e+01  0.0000000000e+00 0. 9.
       25     2     1     2     0     0  0.0000000000e+00  0.0000000000e+00  0.0000000000e+00  1.0000000000e+02  1.0000000000e+02 0. 9.
       21     1     3     0   101   102 -4.4719504559e+01 -2.2316125632e+00 -2.2252771005e+01  5.0000000000e+01  0.0000000000e+00 0. 9.
       21     1     3     0   102   101  4.4719504559e+01  2.2316125632e+00  2.2252771005e+01  5.0000000000e+01  0.0000000000e+00 0. 9.
#pdf   11  -11  1.000000e+00  1.000000e+00  1.000000e+02  1.000000e+00  1.000000e+00
</event>
<event>
     5  9999  1.000000e+00  1.000000e+02  7.825693e-03  1.281252e-01
       11    -1     0     0     0     0  0.0000000000e+00  0.0000000000e+00  5.0000000000e+01  5.0000000000e+01  0.0000000000e+00 0. 9.
      -11    -1     0     0     0     0  0.0000000000e+00  0.0000000000e+00 -5.0000000000e+01  5.0000000000e+01  0.0000000000e+00 0. 9.
       25     2     1     2     0     0  0.0000000000e+00  0.0000000000e+00  0.0000000000e+00  1.0000000000e+02  1.0000000000e+02 0. 9.
       21     1     3     0   101   102 -2.1731958321e+01 -3.5127969526e+01 -2.8173529145e+01  5.0000000000e+01  0.0000000000e+00 0. 9.
       21     1     3     0   102   101  2.1731958321e+01  3.5127969526e+01  2.8173529145e+01  5.0000000000e+01  0.0000000000e+00 0. 9.
#pdf   11  -11  1.000000e+00  1.000000e+00  1.000000e+02  1.000000e+00  1.000000e+00
</event>
<event>
     5  9999  1.000000e+00  1.000000e+02  7.825693e-03  1.281252e-01
       11    -1     0     0     0     0  0.0000000000e+00  0.0000000000e+00  5.0000000000e+01  5.0000000000e+01  0.0000000000e+00 0. 9.
      -11    -1     0     0     0     0  0.0000000000e+00  0.0000000000e+00 -5.0000000000e+01  5.0000000000e+01  0.0000000000e+00 0. 9.
       25     2     1     2     0     0  0.0000000000e+00  0.0000000000e+00  0.0000000000e+00  1.0000000000e+02  1.0000000000e+02 0. 9.
       21     1     3     0   101   102 -1.7039090728e+01 -1.6101041797e+01  4.4163625759e+01  5.0000000000e+01  0.0000000000e+00 0. 9.
       21     1     3     0   102   101  1.7039090728e+01  1.6101041797e+01 -4.4163625759e+01  5.0000000000e+01  0.0000000000e+00 0. 9.
#pdf   11  -11  1.000000e+00  1.000000e+00  1.000000e+02  1.000000e+00  1.000000e+00
</event>
<event>
     5  9999  1.000000e+00  1.000000e+02  7.825693e-03  1.281252e-01
       11    -1     0     0     0     0  0.0000000000e+00  0.0000000000e+00  5.0000000000e+01  5.0000000000e+01  0.0000000000e+00 0. 9.
      -11    -1     0     0     0     0  0.0000000000e+00  0.0000000000e+00 -5.0000000000e+01  5.0000000000e+01  0.0000000000e+00 0. 9.
       25     2     1     2     0     0  0.0000000000e+00  0.0000000000e+00  0.0000000000e+00  1.0000000000e+02  1.0000000000e+02 0. 9.
       21     1     3     0   101   102 -1.0726717817e+01 -3.4699054403e+01  3.4364416893e+01  5.0000000000e+01  0.0000000000e+00 0. 9.
       21     1     3     0   102   101  1.0726717817e+01  3.4699054403e+01 -3.4364416893e+01  5.0000000000e+01  0.0000000000e+00 0. 9.
#pdf   11  -11  1.000000e+00  1.000000e+00  1.000000e+02  1.000000e+00  1.000000e+00
</event>
<event>
     5  9999  1.000000e+00  1.000000e+02  7.825693e-03  1.281252e-01
       11    -1     0     0     0     0  0.0000000000e+00  0.0000000000e+00  5.0000000000e+01  5.0000000000e+01  0.0000000000e+00 0. 9.
      -11    -1     0     0     0     0  0.0000000000e+00  0.0000000000e+00 -5.0000000000e+01  5.0000000000e+01  0.0000000000e+00 0. 9.
       25     2     1     2     0     0  0.0000000000e+00  0.0000000000e+00  0.0000000000e+00  1.0000000000e+02  1.0000000000e+02 0. 9.
       21     1     3     0   101   102 -1.3948358406e+01 -4.5966447766e+01  1.3875481164e+01  5.0000000000e+01  0.0000000000e+00 0. 9.
       21     1     3     0   102   101  1.3948358406e+01  4.5966447766e+01 -1.3875481164e+01  5.0000000000e+01  0.0000000000e+00 0. 9.
#pdf   11  -11  1.000000e+00  1.000000e+00  1.000000e+02  1.000000e+00  1.000000e+00
</event>
<event>
     5  9999  1.000000e+00  1.000000e+02  7.825693e-03  1.281252e-01
       11    -1     0     0     0     0  0.0000000000e+00  0.0000000000e+00  5.0000000000e+01  5.0000000000e+01  0.0000000000e+00 0. 9.
      -11    -1     0     0     0     0  0.0000000000e+00  0.0000000000e+00 -5.0000000000e+01  5.0000000000e+01  0.0000000000e+00 0. 9.
       25     2     1     2     0     0  0.0000000000e+00  0.0000000000e+00  0.0000000000e+00  1.0000000000e+02  1.0000000000e+02 0. 9.
       21     1     3     0   101   102  1.2545392927e+01  4.5561464508e+01 -1.6332974873e+01  5.0000000000e+01  0.0000000000e+00 0. 9.
       21     1     3     0   102   101 -1.2545392927e+01 -4.5561464508e+01  1.6332974873e+01  5.0000000000e+01  0.0000000000e+00 0. 9.
#pdf   11  -11  1.000000e+00  1.000000e+00  1.000000e+02  1.000000e+00  1.000000e+00
</event>
<event>
     5  9999  1.000000e+00  1.000000e+02  7.825693e-03  1.281252e-01
       11    -1     0     0     0     0  0.0000000000e+00  0.0000000000e+00  5.0000000000e+01  5.0000000000e+01  0.0000000000e+00 0. 9.
      -11    -1     0     0     0     0  0.0000000000e+00  0.0000000000e+00 -5.0000000000e+01  5.0000000000e+01  0.0000000000e+00 0. 9.
       25     2     1     2     0     0  0.0000000000e+00  0.0000000000e+00  0.0000000000e+00  1.0000000000e+02  1.0000000000e+02 0. 9.
       21     1     3     0   101   102  1.7741042243e+01 -3.7496448444e+01  2.7915439710e+01  5.0000000000e+01  0.0000000000e+00 0. 9.
       21     1     3     0   102   101 -1.7741042243e+01  3.7496448444e+01 -2.7915439710e+01  5.0000000000e+01  0.0000000000e+00 0. 9.
#pdf   11  -11  1.000000e+00  1.000000e+00  1.000000e+02  1.000000e+00  1.000000e+00
</event>
<event>
     5  9999  1.000000e+00  1.000000e+02  7.825693e-03  1.281252e-01
       11    -1     0     0     0     0  0.0000000000e+00  0.0000000000e+00  5.0000000000e+01  5.0000000000e+01  0.0000000000e+00 0. 9.
      -11    -1     0     0     0     0  0.0000000000e+00  0.0000000000e+00 -5.0000000000e+01  5.0000000000e+01  0.0000000000e+00 0. 9.
       25     2     1     2     0     0  0.0000000000e+00  0.0000000000e+00  0.0000000000e+00  1.0000000000e+02  1.0000000000e+02 0. 9.
       21     1     3     0   101   102 -4.6676816716e+01  1.1726319125e+01 -1.3556113787e+01  5.0000000000e+01  0.0000000000e+00 0. 9.
       21     1     3     0   102   101  4.6676816716e+01 -1.1726319125e+01  1.3556113787e+01  5.0000000000e+01  0.0000000000e+00 0. 9.
#pdf   11  -11  1.000000e+00  1.000000e+00  1.000000e+02  1.000000e+00  1.000000e+00
</event>
<event>
     5  9999  1.000000e+00  1.000000e+02  7.825693e-03  1.281252e-01
       11    -1     0     0     0     0  0.0000000000e+00  0.0000000000e+00  5.0000000000e+01  5.0000000000e+01  0.0000000000e+00 0. 9.
      -11    -1     0     0     0     0  0.0000000000e+00  0.0000000000e+00 -5.0000000000e+01  5.0000000000e+01  0.0000000000e+00 0. 9.
       25     2     1     2     0     0  0.0000000000e+00  0.0000000000e+00  0.0000000000e+00  1.0000000000e+02  1.0000000000e+02 0. 9.
       21     1     3     0   101   102  1.6256560489e+01 -3.0176521504e+01  3.6401947627e+01  5.0000000000e+01  0.0000000000e+00 0. 9.
       21     1     3     0   102   101 -1.6256560489e+01  3.0176521504e+01 -3.6401947627e+01  5.0000000000e+01  0.0000000000e+00 0. 9.
#pdf   11  -11  1.000000e+00  1.000000e+00  1.000000e+02  1.000000e+00  1.000000e+00
</event>
<event>
     5  9999  1.000000e+00  1.000000e+02  7.825693e-03  1.281252e-01
       11    -1     0     0     0     0  0.0000000000e+00  0.0000000000e+00  5.0000000000e+01  5.0000000000e+01  0.0000000000e+00 0. 9.
      -11    -1     0     0     0     0  0.0000000000e+00  0.0000000000e+00 -5.0000000000e+01  5.0000000000e+01  0.0000000000e+00 0. 9.
       25     2     1     2     0     0  0.0000000000e+00  0.0000000000e+00  0.0000000000e+00  1.0000000000e+02  1.0000000000e+02 0. 9.
       21     1     3     0   101   102 -3.3101458527e+01 -3.7099835132e+01 -5.2816357857e+00  5.0000000000e+01  0.0000000000e+00 0. 9.
       21     1     3     0   102   101  3.3101458527e+01  3.7099835132e+01  5.2816357857e+00  5.0000000000e+01  0.0000000000e+00 0. 9.
#pdf   11  -11  1.000000e+00  1.000000e+00  1.000000e+02  1.000000e+00  1.000000e+00
</event>
<event>
     5  9999  1.000000e+00  1.000000e+02  7.825693e-03  1.281252e-01
       11    -1     0     0     0     0  0.0000000000e+00  0.0000000000e+00  5.0000000000e+01  5.0000000000e+01  0.0000000000e+00 0. 9.
      -11    -1     0     0     0     0  0.0000000000e+00  0.0000000000e+00 -5.0000000000e+01  5.0000000000e+01  0.0000000000e+00 0. 9.
       25     2     1     2     0     0  0.0000000000e+00  0.0000000000e+00  0.0000000000e+00  1.0000000000e+02  1.0000000000e+02 0. 9.
       21     1     3     0   101   102 -4.9869861303e+01 -3.4617262204e+00  1.0066703313e+00  5.0000000000e+01  0.0000000000e+00 0. 9.
       21     1     3     0   102   101  4.9869861303e+01  3.4617262204e+00 -1.0066703313e+00  5.0000000000e+01  0.0000000000e+00 0. 9.
#pdf   11  -11  1.000000e+00  1.000000e+00  1.000000e+02  1.000000e+00  1.000000e+00
</event>
<event>
     5  9999  1.000000e+00  1.000000e+02  7.825693e-03  1.281252e-01
       11    -1     0     0     0     0  0.0000000000e+00  0.0000000000e+00  5.0000000000e+01  5.0000000000e+01  0.0000000000e+00 0. 9.
      -11    -1     0     0     0     0  0.0000000000e+00  0.0000000000e+00 -5.0000000000e+01  5.0000000000e+01  0.0000000000e+00 0. 9.
       25     2     1     2     0     0  0.0000000000e+00  0.0000000000e+00  0.0000000000e+00  1.0000000000e+02  1.0000000000e+02 0. 9.
       21     1     3     0   101   102  2.3874450602e+01 -4.3916484833e+01  1.1631716653e+00  5.0000000000e+01  0.0000000000e+00 0. 9.
       21     1     3     0   102   101 -2.3874450602e+01  4.3916484833e+01 -1.1631716653e+00  5.0000000000e+01  0.0000000000e+00 0. 9.
#pdf   11  -11  1.000000e+00  1.000000e+00  1.000000e+02  1.000000e+00  1.000000e+00
</event>
<event>
     5  9999  1.000000e+00  1.000000e+02  7.825693e-03  1.281252e-01
       11    -1     0     0     0     0  0.0000000000e+00  0.0000000000e+00  5.0000000000e+01  5.0000000000e+01  0.0000000000e+00 0. 9.
      -11    -1     0     0     0     0  0.0000000000e+00  0.0000000000e+00 -5.0000000000e+01  5.0000000000e+01  0.0000000000e+00 0. 9.
       25     2     1     2     0     0  0.0000000000e+00  0.0000000000e+00  0.0000000000e+00  1.0000000000e+02  1.0000000000e+02 0. 9.
       21     1     3     0   101   102  3.9325580341e+01 -1.0469868821e+01 -2.9049622678e+01  5.0000000000e+01  0.0000000000e+00 0. 9.
       21     1     3     0   102   101 -3.9325580341e+01  1.0469868821e+01  2.9049622678e+01  5.0000000000e+01  0.0000000000e+00 0. 9.
#pdf   11  -11  1.000000e+00  1.000000e+00  1.000000e+02  1.000000e+00  1.000000e+00
</event>
<event>
     5  9999  1.000000e+00  1.000000e+02  7.825693e-03  1.281252e-01
       11    -1     0     0     0     0  0.0000000000e+00  0.0000000000e+00  5.0000000000e+01  5.0000000000e+01  0.0000000000e+00 0. 9.
      -11    -1     0     0     0     0  0.0000000000e+00  0.0000000000e+00 -5.0000000000e+01  5.0000000000e+01  0.0000000000e+00 0. 9.
       25     2     1     2     0     0  0.0000000000e+00  0.0000000000e+00  0.0000000000e+00  1.0000000000e+02  1.0000000000e+02 0. 9.
       21     1     3     0   101   102  4.6793300757e+01  1.6482317991e+01 -6.2225555780e+00  5.0000000000e+01  0.0000000000e+00 0. 9.
       21     1     3     0   102   101 -4.6793300757e+01 -1.6482317991e+01  6.2225555780e+00  5.0000000000e+01  0.0000000000e+00 0. 9.
#pdf   11  -11  1.000000e+00  1.000000e+00  1.000000e+02  1.000000e+00  1.000000e+00
</event>
<event>
     5  9999  1.000000e+00  1.000000e+02  7.825693e-03  1.281252e-01
       11    -1     0     0     0     0  0.0000000000e+00  0.0000000000e+00  5.0000000000e+01  5.0000000000e+01  0.0000000000e+00 0. 9.
      -11    -1     0     0     0     0  0.0000000000e+00  0.0000000000e+00 -5.0000000000e+01  5.0000000000e+01  0.0000000000e+00 0. 9.
       25     2     1     2     0     0  0.0000000000e+00  0.0000000000e+00  0.0000000000e+00  1.0000000000e+02  1.0000000000e+02 0. 9.
       21     1     3     0   101   102  4.6257680022e+01 -1.9766420132e+00  1.8876438366e+01  5.0000000000e+01  0.0000000000e+00 0. 9.
       21     1     3     0   102   101 -4.6257680022e+01  1.9766420132e+00 -1.8876438366e+01  5.0000000000e+01  0.0000000000e+00 0. 9.
#pdf   11  -11  1.000000e+00  1.000000e+00  1.000000e+02  1.000000e+00  1.000000e+00
</event>
<event>
     5  9999  1.000000e+00  1.000000e+02  7.825693e-03  1.281252e-01
       11    -1     0     0     0     0  0.0000000000e+00  0.0000000000e+00  5.0000000000e+01  5.0000000000e+01  0.0000000000e+00 0. 9.
      -11    -1     0     0     0     0  0.0000000000e+00  0.0000000000e+00 -5.0000000000e+01  5.0000000000e+01  0.0000000000e+00 0. 9.
       25     2     1     2     0     0  0.0000000000e+00  0.0000000000e+00  0.0000000000e+00  1.0000000000e+02  1.0000000000e+02 0. 9.
       21     1     3     0   101   102  4.1564787365e+01  1.8945612736e+01  2.0333032468e+01  5.0000000000e+01  0.0000000000e+00 0. 9.
       21     1     3     0   102   101 -4.1564787365e+01 -1.8945612736e+01 -2.0333032468e+01  5.0000000000e+01  0.0000000000e+00 0. 9.
#pdf   11  -11  1.000000e+00  1.000000e+00  1.000000e+02  1.000000e+00  1.000000e+00
</event>
<event>
     5  9999  1.000000e+00  1.000000e+02  7.825693e-03  1.281252e-01
       11    -1     0     0     0     0  0.0000000000e+00  0.0000000000e+00  5.0000000000e+01  5.0000000000e+01  0.0000000000e+00 0. 9.
      -11    -1     0     0     0     0  0.0000000000e+00  0.0000000000e+00 -5.0000000000e+01  5.0000000000e+01  0.0000000000e+00 0. 9.
       25     2     1     2     0     0  0.0000000000e+00  0.0000000000e+00  0.0000000000e+00  1.0000000000e+02  1.0000000000e+02 0. 9.
       21     1     3     0   101   102  1.3091793085e+01 -4.0300427867e+01 -2.6542050930e+01  5.0000000000e+01  0.0000000000e+00 0. 9.
       21     1     3     0   102   101 -1.3091793085e+01  4.0300427867e+01  2.6542050930e+01  5.0000000000e+01  0.0000000000e+00 0. 9.
#pdf   11  -11  1.000000e+00  1.000000e+00  1.000000e+02  1.000000e+00  1.000000e+00
</event>
<event>
     5  9999  1.000000e+00  1.000000e+02  7.825693e-03  1.281252e-01
       11    -1     0     0     0     0  0.0000000000e+00  0.0000000000e+00  5.0000000000e+01  5.0000000000e+01  0.0000000000e+00 0. 9.
      -11    -1     0     0     0     0  0.0000000000e+00  0.0000000000e+00 -5.0000000000e+01  5.0000000000e+01  0.0000000000e+00 0. 9.
       25     2     1     2     0     0  0.0000000000e+00  0.0000000000e+00  0.0000000000e+00  1.0000000000e+02  1.0000000000e+02 0. 9.
       21     1     3     0   101   102  1.4554599634e+01 -1.9864451621e+01  4.3515137496e+01  5.0000000000e+01  0.0000000000e+00 0. 9.
       21     1     3     0   102   101 -1.4554599634e+01  1.9864451621e+01 -4.3515137496e+01  5.0000000000e+01  0.0000000000e+00 0. 9.
#pdf   11  -11  1.000000e+00  1.000000e+00  1.000000e+02  1.000000e+00  1.000000e+00
</event>
<event>
     5  9999  1.000000e+00  1.000000e+02  7.825693e-03  1.281252e-01
       11    -1     0     0     0     0  0.0000000000e+00  0.0000000000e+00  5.0000000000e+01  5.0000000000e+01  0.0000000000e+00 0. 9.
      -11    -1     0     0     0     0  0.0000000000e+00  0.0000000000e+00 -5.0000000000e+01  5.0000000000e+01  0.0000000000e+00 0. 9.
       25     2     1     2     0     0  0.0000000000e+00  0.0000000000e+00  0.0000000000e+00  1.0000000000e+02  1.0000000000e+02 0. 9.
       21     1     3     0   101   102 -1.6155718999e+01 -3.7931121910e+01 -2.8288208396e+01  5.0000000000e+01  0.0000000000e+00 0. 9.
       21     1     3     0   102   101  1.6155718999e+01  3.7931121910e+01  2.8288208396e+01  5.0000000000e+01  0.0000000000e+00 0. 9.
#pdf   11  -11  1.000000e+00  1.000000e+00  1.000000e+02  1.000000e+00  1.000000e+00
</event>
<event>
     5  9999  1.000000e+00  1.000000e+02  7.825693e-03  1.281252e-01
       11    -1     0     0     0     0  0.0000000000e+00  0.0000000000e+00  5.0000000000e+01  5.0000000000e+01  0.0000000000e+00 0. 9.
      -11    -1     0     0     0     0  0.0000000000e+00  0.0000000000e+00 -5.0000000000e+01  5.0000000000e+01  0.0000000000e+00 0. 9.
       25     2     1     2     0     0  0.0000000000e+00  0.0000000000e+00  0.0000000000e+00  1.0000000000e+02  1.0000000000e+02 0. 9.
       21     1     3     0   101   102 -3.7967515833e+01 -2.8159252953e+01 -1.6294913764e+01  5.0000000000e+01  0.0000000000e+00 0. 9.
       21     1     3     0   102   101  3.7967515833e+01  2.8159252953e+01  1.6294913764e+01  5.0000000000e+01  0.0000000000e+00 0. 9.
#pdf   11  -11  1.000000e+00  1.000000e+00  1.000000e+02  1.000000e+00  1.000000e+00
</event>
<event>
     5  9999  1.000000e+00  1.000000e+02  7.825693e-03  1.281252e-01
       11    -1     0     0     0     0  0.0000000000e+00  0.0000000000e+00  5.0000000000e+01  5.0000000000e+01  0.0000000000e+00 0. 9.
      -11    -1     0     0     0     0  0.0000000000e+00  0.0000000000e+00 -5.0000000000e+01  5.0000000000e+01  0.0000000000e+00 0. 9.
       25     2     1     2     0     0  0.0000000000e+00  0.0000000000e+00  0.0000000000e+00  1.0000000000e+02  1.0000000000e+02 0. 9.
       21     1     3     0   101   102 -4.7780524467e+01  3.3316987710e+00  1.4349956967e+01  5.0000000000e+01  0.0000000000e+00 0. 9.
       21     1     3     0   102   101  4.7780524467e+01 -3.3316987710e+00 -1.4349956967e+01  5.0000000000e+01  0.0000000000e+00 0. 9.
#pdf   11  -11  1.000000e+00  1.000000e+00  1.000000e+02  1.000000e+00  1.000000e+00
</event>
<event>
     5  9999  1.000000e+00  1.000000e+02  7.825693e-03  1.281252e-01
       11    -1     0     0     0     0  0.0000000000e+00  0.0000000000e+00  5.0000000000e+01  5.0000000000e+01  0.0000000000e+00 0. 9.
      -11    -1     0     0     0     0  0.0000000000e+00  0.0000000000e+00 -5.0000000000e+01  5.0000000000e+01  0.0000000000e+00 0. 9.
       25     2     1     2     0     0  0.0000000000e+00  0.0000000000e+00  0.0000000000e+00  1.0000000000e+02  1.0000000000e+02 0. 9.
       21     1     3     0   101   102  4.1434205839e+01  3.6181143988e+00 -2.7750960969e+01  5.0000000000e+01  0.0000000000e+00 0. 9.
       21     1     3     0   102   101 -4.1434205839e+01 -3.6181143988e+00  2.7750960969e+01  5.0000000000e+01  0.0000000000e+00 0. 9.
#pdf   11  -11  1.000000e+00  1.000000e+00  1.000000e+02  1.000000e+00  1.000000e+00
</event>
<event>
     5  9999  1.000000e+00  1.000000e+02  7.825693e-03  1.281252e-01
       11    -1     0     0     0     0  0.0000000000e+00  0.0000000000e+00  5.0000000000e+01  5.0000000000e+01  0.0000000000e+00 0. 9.
      -11    -1     0     0     0     0  0.0000000000e+00  0.0000000000e+00 -5.0000000000e+01  5.0000000000e+01  0.0000000000e+00 0. 9.
       25     2     1     2     0     0  0.0000000000e+00  0.0000000000e+00  0.0000000000e+00  1.0000000000e+02  1.0000000000e+02 0. 9.
       21     1     3     0   101   102  4.8063181443e+01  1.0049477107e+01 -9.4307263454e+00  5.0000000000e+01  0.0000000000e+00 0. 9.
       21     1     3     0   102   101 -4.8063181443e+01 -1.0049477107e+01  9.4307263454e+00  5.0000000000e+01  0.0000000000e+00 0. 9.
#pdf   11  -11  1.000000e+00  1.000000e+00  1.000000e+02  1.000000e+00  1.000000e+00
</event>
<event>
     5  9999  1.000000e+00  1.000000e+02  7.825693e-03  1.281252e-01
       11    -1     0     0     0     0  0.0000000000e+00  0.0000000000e+00  5.0000000000e+01  5.0000000000e+01  0.0000000000e+00 0. 9.
      -11    -1     0     0     0     0  0.0000000000e+00  0.0000000000e+00 -5.0000000000e+01  5.0000000000e+01  0.0000000000e+00 0. 9.
       25     2     1     2     0     0  0.0000000000e+00  0.0000000000e+00  0.0000000000e+00  1.0000000000e+02  1.0000000000e+02 0. 9.
       21     1     3     0   101   102  1.4065181804e+01 -4.2593736375e+01 -2.2089460890e+01  5.0000000000e+01  0.0000000000e+00 0. 9.
       21     1     3     0   102   101 -1.4065181804e+01  4.2593736375e+01  2.2089460890e+01  5.0000000000e+01  0.0000000000e+00 0. 9.
#pdf   11  -11  1.000000e+00  1.000000e+00  1.000000e+02  1.000000e+00  1.000000e+00
</event>
<event>
     5  9999  1.000000e+00  1.000000e+02  7.825693e-03  1.281252e-01
       11    -1     0     0     0     0  0.0000000000e+00  0.0000000000e+00  5.0000000000e+01  5.0000000000e+01  0.0000000000e+00 0. 9.
      -11    -1     0     0     0     0  0.0000000000e+00  0.0000000000e+00 -5.0000000000e+01  5.0000000000e+01  0.0000000000e+00 0. 9.
       25     2     1     2     0     0  0.0000000000e+00  0.0000000000e+00  0.0000000000e+00  1.0000000000e+02  1.0000000000e+02 0. 9.
       21     1     3     0   101   102  3.8100747714e+01  3.0619774847e+01 -1.0524372284e+01  5.0000000000e+01  0.0000000000e+00 0. 9.
       21     1     3     0   102   101 -3.8100747714e+01 -3.0619774847e+01  1.0524372284e+01  5.0000000000e+01  0.0000000000e+00 0. 9.
#pdf   11  -11  1.000000e+00  1.000000e+00  1.000000e+02  1.000000e+00  1.000000e+00
</event>
<event>
     5  9999  1.000000e+00  1.000000e+02  7.825693e-03  1.281252e-01
       11    -1     0     0     0     0  0.0000000000e+00  0.0000000000e+00  5.0000000000e+01  5.0000000000e+01  0.0000000000e+00 0. 9.
      -11    -1     0     0     0     0  0.0000000000e+00  0.0000000000e+00 -5.0000000000e+01  5.0000000000e+01  0.0000000000e+00 0. 9.
       25     2     1     2     0     0  0.0000000000e+00  0.0000000000e+00  0.0000000000e+00  1.0000000000e+02  1.0000000000e+02 0. 9.
       21     1     3     0   101   102  3.9992457533e+00  1.4738784105e+01  4.7610652973e+01  5.0000000000e+01  0.0000000000e+00 0. 9.
       21     1     3     0   102   101 -3.9992457533e+00 -1.4738784105e+01 -4.7610652973e+01  5.0000000000e+01  0.0000000000e+00 0. 9.
#pdf   11  -11  1.000000e+00  1.000000e+00  1.000000e+02  1.000000e+00  1.000000e+00
</event>
<event>
     5  9999  1.000000e+00  1.000000e+02  7.825693e-03  1.281252e-01
       11    -1     0     0     0     0  0.0000000000e+00  0.0000000000e+00  5.0000000000e+01  5.0000000000e+01  0.0000000000e+00 0. 9.
      -11    -1     0     0     0     0  0.0000000000e+00  0.0000000000e+00 -5.0000000000e+01  5.0000000000e+01  0.0000000000e+00 0. 9.
       25     2     1     2     0     0  0.0000000000e+00  0.0000000000e+00  0.0000000000e+00  1.0000000000e+02  1.0000000000e+02 0. 9.
       21     1     3     0   101   102 -3.6357900076e+01  3.2565428067e+01 -1.0844168796e+01  5.0000000000e+01  0.0000000000e+00 0. 9.
       21     1     3     0   102   101  3.6357900076e+01 -3.2565428067e+01  1.0844168796e+01  5.0000000000e+01  0.0000000000e+00 0. 9.
#pdf   11  -11  1.000000e+00  1.000000e+00  1.000000e+02  1.000000e+00  1.000000e+00
</event>
<event>
     5  9999  1.000000e+00  1.000000e+02  7.825693e-03  1.281252e-01
       11    -1     0     0     0     0  0.0000000000e+00  0.0000000000e+00  5.0000000000e+01  5.0000000000e+01  0.0000000000e+00 0. 9.
      -11    -1     0     0     0     0  0.0000000000e+00  0.0000000000e+00 -5.0000000000e+01  5.0000000000e+01  0.0000000000e+00 0. 9.
       25     2     1     2     0     0  0.0000000000e+00  0.0000000000e+00  0.0000000000e+00  1.0000000000e+02  1.0000000000e+02 0. 9.
       21     1     3     0   101   102  2.3223867608e+01 -4.2931808744e+01 -1.0840284648e+01  5.0000000000e+01  0.0000000000e+00 0. 9.
       21     1     3     0   102   101 -2.3223867608e+01  4.2931808744e+01  1.0840284648e+01  5.0000000000e+01  0.0000000000e+00 0. 9.
#pdf   11  -11  1.000000e+00  1.000000e+00  1.000000e+02  1.000000e+00  1.000000e+00
</event>
<event>
     5  9999  1.000000e+00  1.000000e+02  7.825693e-03  1.281252e-01
       11    -1     0     0     0     0  0.0000000000e+00  0.0000000000e+00  5.0000000000e+01  5.0000000000e+01  0.0000000000e+00 0. 9.
      -11    -1     0     0     0     0  0.0000000000e+00  0.0000000000e+00 -5.0000000000e+01  5.0000000000e+01  0.0000000000e+00 0. 9.
       25     2     1     2     0     0  0.0000000000e+00  0.0000000000e+00  0.0000000000e+00  1.0000000000e+02  1.0000000000e+02 0. 9.
       21     1     3     0   101   102 -1.0425612693e-02 -3.9045229315e+01 -3.1232514453e+01  5.0000000000e+01  0.0000000000e+00 0. 9.
       21     1     3     0   102   101  1.0425612693e-02  3.9045229315e+01  3.1232514453e+01  5.0000000000e+01  0.0000000000e+00 0. 9.
#pdf   11  -11  1.000000e+00  1.000000e+00  1.000000e+02  1.000000e+00  1.000000e+00
</event>
<event>
     5  9999  1.000000e+00  1.000000e+02  7.825693e-03  1.281252e-01
       11    -1     0     0     0     0  0.0000000000e+00  0.0000000000e+00  5.0000000000e+01  5.0000000000e+01  0.0000000000e+00 0. 9.
      -11    -1     0     0     0     0  0.0000000000e+00  0.0000000000e+00 -5.0000000000e+01  5.0000000000e+01  0.0000000000e+00 0. 9.
       25     2     1     2     0     0  0.0000000000e+00  0.0000000000e+00  0.0000000000e+00  1.0000000000e+02  1.0000000000e+02 0. 9.
       21     1     3     0   101   102 -2.8170115339e+01 -3.8024588626e+01 -1.6142343747e+01  5.0000000000e+01  0.0000000000e+00 0. 9.
       21     1     3     0   102   101  2.8170115339e+01  3.8024588626e+01  1.6142343747e+01  5.0000000000e+01  0.0000000000e+00 0. 9.
#pdf   11  -11  1.000000e+00  1.000000e+00  1.000000e+02  1.000000e+00  1.000000e+00
</event>
<event>
     5  9999  1.000000e+00  1.000000e+02  7.825693e-03  1.281252e-01
       11    -1     0     0     0     0  0.0000000000e+00  0.0000000000e+00  5.0000000000e+01  5.0000000000e+01  0.0000000000e+00 0. 9.
      -11    -1     0     0     0     0  0.0000000000e+00  0.0000000000e+00 -5.0000000000e+01  5.0000000000e+01  0.0000000000e+00 0. 9.
       25     2     1     2     0     0  0.0000000000e+00  0.0000000000e+00  0.0000000000e+00  1.0000000000e+02  1.0000000000e+02 0. 9.
       21     1     3     0   101   102  3.6486306015e+01  3.1475539715e+01  1.3343158287e+01  5.0000000000e+01  0.0000000000e+00 0. 9.
       21     1     3     0   102   101 -3.6486306015e+01 -3.1475539715e+01 -1.3343158287e+01  5.0000000000e+01  0.0000000000e+00 0. 9.
#pdf   11  -11  1.000000e+00  1.000000e+00  1.000000e+02  1.000000e+00  1.000000e+00
</event>
<event>
     5  9999  1.000000e+00  1.000000e+02  7.825693e-03  1.281252e-01
       11    -1     0     0     0     0  0.0000000000e+00  0.0000000000e+00  5.0000000000e+01  5.0000000000e+01  0.0000000000e+00 0. 9.
      -11    -1     0     0     0     0  0.0000000000e+00  0.0000000000e+00 -5.0000000000e+01  5.0000000000e+01  0.0000000000e+00 0. 9.
       25     2     1     2     0     0  0.0000000000e+00  0.0000000000e+00  0.0000000000e+00  1.0000000000e+02  1.0000000000e+02 0. 9.
       21     1     3     0   101   102  2.9695794674e+01  4.0048655379e+01 -3.7769009723e+00  5.0000000000e+01  0.0000000000e+00 0. 9.
       21     1     3     0   102   101 -2.9695794674e+01 -4.0048655379e+01  3.7769009723e+00  5.0000000000e+01  0.0000000000e+00 0. 9.
#pdf   11  -11  1.000000e+00  1.000000e+00  1.000000e+02  1.000000e+00  1.000000e+00
</event>
<event>
     5  9999  1.000000e+00  1.000000e+02  7.825693e-03  1.281252e-01
       11    -1     0     0     0     0  0.0000000000e+00  0.0000000000e+00  5.0000000000e+01  5.0000000000e+01  0.0000000000e+00 0. 9.
      -11    -1     0     0     0     0  0.0000000000e+00  0.0000000000e+00 -5.0000000000e+01  5.0000000000e+01  0.0000000000e+00 0. 9.
       25     2     1     2     0     0  0.0000000000e+00  0.0000000000e+00  0.0000000000e+00  1.0000000000e+02  1.0000000000e+02 0. 9.
       21     1     3     0   101   102 -7.2248512647e+00 -3.8505550518e+01 -3.1066446587e+01  5.0000000000e+01  0.0000000000e+00 0. 9.
       21     1     3     0   102   101  7.2248512647e+00  3.8505550518e+01  3.1066446587e+01  5.0000000000e+01  0.0000000000e+00 0. 9.
#pdf   11  -11  1.000000e+00  1.000000e+00  1.000000e+02  1.000000e+00  1.000000e+00
</event>
<event>
     5  9999  1.000000e+00  1.000000e+02  7.825693e-03  1.281252e-01
       11    -1     0     0     0     0  0.0000000000e+00  0.0000000000e+00  5.0000000000e+01  5.0000000000e+01  0.0000000000e+00 0. 9.
      -11    -1     0     0     0     0  0.0000000000e+00  0.0000000000e+00 -5.0000000000e+01  5.0000000000e+01  0.0000000000e+00 0. 9.
       25     2     1     2     0     0  0.0000000000e+00  0.0000000000e+00  0.0000000000e+00  1.0000000000e+02  1.0000000000e+02 0. 9.
       21     1     3     0   101   102  6.7764124946e+00 -2.7066186845e+01 -4.1490984122e+01  5.0000000000e+01  0.0000000000e+00 0. 9.
       21     1     3     0   102   101 -6.7764124946e+00  2.7066186845e+01  4.1490984122e+01  5.0000000000e+01  0.0000000000e+00 0. 9.
#pdf   11  -11  1.000000e+00  1.000000e+00  1.000000e+02  1.000000e+00  1.000000e+00
</event>
<event>
     5  9999  1.000000e+00  1.000000e+02  7.825693e-03  1.281252e-01
       11    -1     0     0     0     0  0.0000000000e+00  0.0000000000e+00  5.0000000000e+01  5.0000000000e+01  0.0000000000e+00 0. 9.
      -11    -1     0     0     0     0  0.0000000000e+00  0.0000000000e+00 -5.0000000000e+01  5.0000000000e+01  0.0000000000e+00 0. 9.
       25     2     1     2     0     0  0.0000000000e+00  0.0000000000e+00  0.0000000000e+00  1.0000000000e+02  1.0000000000e+02 0. 9.
       21     1     3     0   101   102  4.4871292955e+01  1.9976910029e+01  9.3536161057e+00  5.0000000000e+01  0.0000000000e+00 0. 9.
       21     1     3     0   102   101 -4.4871292955e+01 -1.9976910029e+01 -9.3536161057e+00  5.0000000000e+01  0.0000000000e+00 0. 9.
#pdf   11  -11  1.000000e+00  1.000000e+00  1.000000e+02  1.000000e+00  1.000000e+00
</event>
<event>
     5  9999  1.000000e+00  1.000000e+02  7.825693e-03  1.281252e-01
       11    -1     0     0     0     0  0.0000000000e+00  0.0000000000e+00  5.0000000000e+01  5.0000000000e+01  0.0000000000e+00 0. 9.
      -11    -1     0     0     0     0  0.0000000000e+00  0.0000000000e+00 -5.0000000000e+01  5.0000000000e+01  0.0000000000e+00 0. 9.
       25     2     1     2     0     0  0.0000000000e+00  0.0000000000e+00  0.0000000000e+00  1.0000000000e+02  1.0000000000e+02 0. 9.
       21     1     3     0   101   102  1.3712523079e+01 -4.6507394225e+01  1.2207743168e+01  5.0000000000e+01  0.0000000000e+00 0. 9.
       21     1     3     0   102   101 -1.3712523079e+01  4.6507394225e+01 -1.2207743168e+01  5.0000000000e+01  0.0000000000e+00 0. 9.
#pdf   11  -11  1.000000e+00  1.000000e+00  1.000000e+02  1.000000e+00  1.000000e+00
</event>
<event>
     5  9999  1.000000e+00  1.000000e+02  7.825693e-03  1.281252e-01
       11    -1     0     0     0     0  0.0000000000e+00  0.0000000000e+00  5.0000000000e+01  5.0000000000e+01  0.0000000000e+00 0. 9.
      -11    -1     0     0     0     0  0.0000000000e+00  0.0000000000e+00 -5.0000000000e+01  5.0000000000e+01  0.0000000000e+00 0. 9.
       25     2     1     2     0     0  0.0000000000e+00  0.0000000000e+00  0.0000000000e+00  1.0000000000e+02  1.0000000000e+02 0. 9.
       21     1     3     0   101   102  3.2417418668e+01 -3.2349697825e+01 -2.0065094505e+01  5.0000000000e+01  0.0000000000e+00 0. 9.
       21     1     3     0   102   101 -3.2417418668e+01  3.2349697825e+01  2.0065094505e+01  5.0000000000e+01  0.0000000000e+00 0. 9.
#pdf   11  -11  1.000000e+00  1.000000e+00  1.000000e+02  1.000000e+00  1.000000e+00
</event>
<event>
     5  9999  1.000000e+00  1.000000e+02  7.825693e-03  1.281252e-01
       11    -1     0     0     0     0  0.0000000000e+00  0.0000000000e+00  5.0000000000e+01  5.0000000000e+01  0.0000000000e+00 0. 9.
      -11    -1     0     0     0     0  0.0000000000e+00  0.0000000000e+00 -5.0000000000e+01  5.0000000000e+01  0.0000000000e+00 0. 9.
       25     2     1     2     0     0  0.0000000000e+00  0.0000000000e+00  0.0000000000e+00  1.0000000000e+02  1.0000000000e+02 0. 9.
       21     1     3     0   101   102 -4.2283123017e+01  1.1204468106e+01 -2.4219772963e+01  5.0000000000e+01  0.0000000000e+00 0. 9.
       21     1     3     0   102   101  4.2283123017e+01 -1.1204468106e+01  2.4219772963e+01  5.0000000000e+01  0.0000000000e+00 0. 9.
#pdf   11  -11  1.000000e+00  1.000000e+00  1.000000e+02  1.000000e+00  1.000000e+00
</event>
<event>
     5  9999  1.000000e+00  1.000000e+02  7.825693e-03  1.281252e-01
       11    -1     0     0     0     0  0.0000000000e+00  0.0000000000e+00  5.0000000000e+01  5.0000000000e+01  0.0000000000e+00 0. 9.
      -11    -1     0     0     0     0  0.0000000000e+00  0.0000000000e+00 -5.0000000000e+01  5.0000000000e+01  0.0000000000e+00 0. 9.
       25     2     1     2     0     0  0.0000000000e+00  0.0000000000e+00  0.0000000000e+00  1.0000000000e+02  1.0000000000e+02 0. 9.
       21     1     3     0   101   102 -1.3595376600e+01  1.0773678946e+01  4.6894494102e+01  5.0000000000e+01  0.0000000000e+00 0. 9.
       21     1     3     0   102   101  1.3595376600e+01 -1.0773678946e+01 -4.6894494102e+01  5.0000000000e+01  0.0000000000e+00 0. 9.
#pdf   11  -11  1.000000e+00  1.000000e+00  1.000000e+02  1.000000e+00  1.000000e+00
</event>
<event>
     5  9999  1.000000e+00  1.000000e+02  7.825693e-03  1.281252e-01
       11    -1     0     0     0     0  0.0000000000e+00  0.0000000000e+00  5.0000000000e+01  5.0000000000e+01  0.0000000000e+00 0. 9.
      -11    -1     0     0     0     0  0.0000000000e+00  0.0000000000e+00 -5.0000000000e+01  5.0000000000e+01  0.0000000000e+00 0. 9.
       25     2     1     2     0     0  0.0000000000e+00  0.0000000000e+00  0.0000000000e+00  1.0000000000e+02  1.0000000000e+02 0. 9.
       21     1     3     0   101   102  3.8887974359e+00  4.2025876183e+01  2.6808636398e+01  5.0000000000e+01  0.0000000000e+00 0. 9.
       21     1     3     0   102   101 -3.8887974359e+00 -4.2025876183e+01 -2.6808636398e+01  5.0000000000e+01  0.0000000000e+00 0. 9.
#pdf   11  -11  1.000000e+00  1.000000e+00  1.000000e+02  1.000000e+00  1.000000e+00
</event>
<event>
     5  9999  1.000000e+00  1.000000e+02  7.825693e-03  1.281252e-01
       11    -1     0     0     0     0  0.0000000000e+00  0.0000000000e+00  5.0000000000e+01  5.0000000000e+01  0.0000000000e+00 0. 9.
      -11    -1     0     0     0     0  0.0000000000e+00  0.0000000000e+00 -5.0000000000e+01  5.0000000000e+01  0.0000000000e+00 0. 9.
       25     2     1     2     0     0  0.0000000000e+00  0.0000000000e+00  0.0000000000e+00  1.0000000000e+02  1.0000000000e+02 0. 9.
       21     1     3     0   101   102  2.9602322768e+00 -2.2020444432e+01 -4.4792153910e+01  5.0000000000e+01  0.0000000000e+00 0. 9.
       21     1     3     0   102   101 -2.9602322768e+00  2.2020444432e+01  4.4792153910e+01  5.0000000000e+01  0.0000000000e+00 0. 9.
#pdf   11  -11  1.000000e+00  1.000000e+00  1.000000e+02  1.000000e+00  1.000000e+00
</event>
<event>
     5  9999  1.000000e+00  1.000000e+02  7.825693e-03  1.281252e-01
       11    -1     0     0     0     0  0.0000000000e+00  0.0000000000e+00  5.0000000000e+01  5.0000000000e+01  0.0000000000e+00 0. 9.
      -11    -1     0     0     0     0  0.0000000000e+00  0.0000000000e+00 -5.0000000000e+01  5.0000000000e+01  0.0000000000e+00 0. 9.
       25     2     1     2     0     0  0.0000000000e+00  0.0000000000e+00  0.0000000000e+00  1.0000000000e+02  1.0000000000e+02 0. 9.
       21     1     3     0   101   102  2.3080196934e+01  2.5009748321e+01  3.6630820335e+01  5.0000000000e+01  0.0000000000e+00 0. 9.
       21     1     3     0   102   101 -2.3080196934e+01 -2.5009748321e+01 -3.6630820335e+01  5.0000000000e+01  0.0000000000e+00 0. 9.
#pdf   11  -11  1.000000e+00  1.000000e+00  1.000000e+02  1.000000e+00  1.000000e+00
</event>
<event>
     5  9999  1.000000e+00  1.000000e+02  7.825693e-03  1.281252e-01
       11    -1     0     0     0     0  0.0000000000e+00  0.0000000000e+00  5.0000000000e+01  5.0000000000e+01  0.0000000000e+00 0. 9.
      -11    -1     0     0     0     0  0.0000000000e+00  0.0000000000e+00 -5.0000000000e+01  5.0000000000e+01  0.0000000000e+00 0. 9.
       25     2     1     2     0     0  0.0000000000e+00  0.0000000000e+00  0.0000000000e+00  1.0000000000e+02  1.0000000000e+02 0. 9.
       21     1     3     0   101   102 -9.5953058881e+00  4.8817107467e+01  4.9819798780e+00  5.0000000000e+01  0.0000000000e+00 0. 9.
       21     1     3     0   102   101  9.5953058881e+00 -4.8817107467e+01 -4.9819798780e+00  5.0000000000e+01  0.0000000000e+00 0. 9.
#pdf   11  -11  1.000000e+00  1.000000e+00  1.000000e+02  1.000000e+00  1.000000e+00
</event>
<event>
     5  9999  1.000000e+00  1.000000e+02  7.825693e-03  1.281252e-01
       11    -1     0     0     0     0  0.0000000000e+00  0.0000000000e+00  5.0000000000e+01  5.0000000000e+01  0.0000000000e+00 0. 9.
      -11    -1     0     0     0     0  0.0000000000e+00  0.0000000000e+00 -5.0000000000e+01  5.0000000000e+01  0.0000000000e+00 0. 9.
       25     2     1     2     0     0  0.0000000000e+00  0.0000000000e+00  0.0000000000e+00  1.0000000000e+02  1.0000000000e+02 0. 9.
       21     1     3     0   101   102 -5.3943298422e+00  4.9690023948e+01  1.3426561625e+00  5.0000000000e+01  0.0000000000e+00 0. 9.
       21     1     3     0   102   101  5.3943298422e+00 -4.9690023948e+01 -1.3426561625e+00  5.0000000000e+01  0.0000000000e+00 0. 9.
#pdf   11  -11  1.000000e+00  1.000000e+00  1.000000e+02  1.000000e+00  1.000000e+00
</event>
<event>
     5  9999  1.000000e+00  1.000000e+02  7.825693e-03  1.281252e-01
       11    -1     0     0     0     0  0.0000000000e+00  0.0000000000e+00  5.0000000000e+01  5.0000000000e+01  0.0000000000e+00 0. 9.
      -11    -1     0     0     0     0  0.0000000000e+00  0.0000000000e+00 -5.0000000000e+01  5.0000000000e+01  0.0000000000e+00 0. 9.
       25     2     1     2     0     0  0.0000000000e+00  0.0000000000e+00  0.0000000000e+00  1.0000000000e+02  1.0000000000e+02 0. 9.
       21     1     3     0   101   102 -2.1166488772e+01 -4.4038627283e+01 -1.0610327990e+01  5.0000000000e+01  0.0000000000e+00 0. 9.
       21     1     3     0   102   101  2.1166488772e+01  4.4038627283e+01  1.0610327990e+01  5.0000000000e+01  0.0000000000e+00 0. 9.
#pdf   11  -11  1.000000e+00  1.000000e+00  1.000000e+02  1.000000e+00  1.000000e+00
</event>
<event>
     5  9999  1.000000e+00  1.000000e+02  7.825693e-03  1.281252e-01
       11    -1     0     0     0     0  0.0000000000e+00  0.0000000000e+00  5.0000000000e+01  5.0000000000e+01  0.0000000000e+00 0. 9.
      -11    -1     0     0     0     0  0.0000000000e+00  0.0000000000e+00 -5.0000000000e+01  5.0000000000e+01  0.0000000000e+00 0. 9.
       25     2     1     2     0     0  0.0000000000e+00  0.0000000000e+00  0.0000000000e+00  1.0000000000e+02  1.0000000000e+02 0. 9.
       21     1     3     0   101   102  3.8841563987e+01  1.1179789927e+01  2.9433742613e+01  5.0000000000e+01  0.0000000000e+00 0. 9.
       21     1     3     0   102   101 -3.8841563987e+01 -1.1179789927e+01 -2.9433742613e+01  5.0000000000e+01  0.0000000000e+00 0. 9.
#pdf   11  -11  1.000000e+00  1.000000e+00  1.000000e+02  1.000000e+00  1.000000e+00
</event>
<event>
     5  9999  1.000000e+00  1.000000e+02  7.825693e-03  1.281252e-01
       11    -1     0     0     0     0  0.0000000000e+00  0.0000000000e+00  5.0000000000e+01  5.0000000000e+01  0.0000000000e+00 0. 9.
      -11    -1     0     0     0     0  0.0000000000e+00  0.0000000000e+00 -5.0000000000e+01  5.0000000000e+01  0.0000000000e+00 0. 9.
       25     2     1     2     0     0  0.0000000000e+00  0.0000000000e+00  0.0000000000e+00  1.0000000000e+02  1.0000000000e+02 0. 9.
       21     1     3     0   101   102  2.9384594310e+00  4.8991185744e+00  4.9672568822e+01  5.0000000000e+01  0.0000000000e+00 0. 9.
       21     1     3     0   102   101 -2.9384594310e+00 -4.8991185744e+00 -4.9672568822e+01  5.0000000000e+01  0.0000000000e+00 0. 9.
#pdf   11  -11  1.000000e+00  1.000000e+00  1.000000e+02  1.000000e+00  1.000000e+00
</event>
</LesHouchesEvents>
