<LesHouchesEvents version="1.0">
<!--
  File written by Pythia8::LHAup on 07 Jun 2015 at 18:28:05
-->
<init>
  11  -11  5.120000e+04  5.120000e+04  0  0  0  0  3  1
  1.806879e-28  0.000000e+00  1.000000e+00   9999
</init>
<event>
     5  9999  1.000000e+00  1.024000e+05  8.493754e-03  6.416823e-02
       11    -1     0     0     0     0  0.0000000000e+00  0.0000000000e+00  5.1200000000e+04  5.1200000000e+04  0.0000000000e+00 0. 9.
      -11    -1     0     0     0     0  0.0000000000e+00  0.0000000000e+00 -5.1200000000e+04  5.1200000000e+04  0.0000000000e+00 0. 9.
       25     2     1     2     0     0  0.0000000000e+00  0.0000000000e+00  0.0000000000e+00  1.0240000000e+05  1.0240000000e+05 0. 9.
       21     1     3     0   101   102 -8.1678079752e+03 -4.2940357326e+04  2.6661819623e+04  5.1200000000e+04  0.0000000000e+00 0. 9.
       21     1     3     0   102   101  8.1678079752e+03  4.2940357326e+04 -2.6661819623e+04  5.1200000000e+04  0.0000000000e+00 0. 9.
#pdf   11  -11  1.000000e+00  1.000000e+00  1.024000e+05  1.000000e+00  1.000000e+00
</event>
<event>
     5  9999  1.000000e+00  1.024000e+05  8.493754e-03  6.416823e-02
       11    -1     0     0     0     0  0.0000000000e+00  0.0000000000e+00  5.1200000000e+04  5.1200000000e+04  0.0000000000e+00 0. 9.
      -11    -1     0     0     0     0  0.0000000000e+00  0.0000000000e+00 -5.1200000000e+04  5.1200000000e+04  0.0000000000e+00 0. 9.
       25     2     1     2     0     0  0.0000000000e+00  0.0000000000e+00  0.0000000000e+00  1.0240000000e+05  1.0240000000e+05 0. 9.
       21     1     3     0   101   102  2.3377555182e+04  3.5743217099e+03  4.5410947337e+04  5.1200000000e+04  0.0000000000e+00 0. 9.
       21     1     3     0   102   101 -2.3377555182e+04 -3.5743217099e+03 -4.5410947337e+04  5.1200000000e+04  0.0000000000e+00 0. 9.
#pdf   11  -11  1.000000e+00  1.000000e+00  1.024000e+05  1.000000e+00  1.000000e+00
</event>
<event>
     5  9999  1.000000e+00  1.024000e+05  8.493754e-03  6.416823e-02
       11    -1     0     0     0     0  0.0000000000e+00  0.0000000000e+00  5.1200000000e+04  5.1200000000e+04  0.0000000000e+00 0. 9.
      -11    -1     0     0     0     0  0.0000000000e+00  0.0000000000e+00 -5.1200000000e+04  5.1200000000e+04  0.0000000000e+00 0. 9.
       25     2     1     2     0     0  0.0000000000e+00  0.0000000000e+00  0.0000000000e+00  1.0240000000e+05  1.0240000000e+05 0. 9.
       21     1     3     0   101   102 -4.7514442680e+04  1.6740834404e+04  9.1412362525e+03  5.1200000000e+04  0.0000000000e+00 0. 9.
       21     1     3     0   102   101  4.7514442680e+04 -1.6740834404e+04 -9.1412362525e+03  5.1200000000e+04  0.0000000000e+00 0. 9.
#pdf   11  -11  1.000000e+00  1.000000e+00  1.024000e+05  1.000000e+00  1.000000e+00
</event>
<event>
     5  9999  1.000000e+00  1.024000e+05  8.493754e-03  6.416823e-02
       11    -1     0     0     0     0  0.0000000000e+00  0.0000000000e+00  5.1200000000e+04  5.1200000000e+04  0.0000000000e+00 0. 9.
      -11    -1     0     0     0     0  0.0000000000e+00  0.0000000000e+00 -5.1200000000e+04  5.1200000000e+04  0.0000000000e+00 0. 9.
       25     2     1     2     0     0  0.0000000000e+00  0.0000000000e+00  0.0000000000e+00  1.0240000000e+05  1.0240000000e+05 0. 9.
       21     1     3     0   101   102  4.8747341006e+04 -1.1213476836e+04 -1.0926787365e+04  5.1200000000e+04  0.0000000000e+00 0. 9.
       21     1     3     0   102   101 -4.8747341006e+04  1.1213476836e+04  1.0926787365e+04  5.1200000000e+04  0.0000000000e+00 0. 9.
#pdf   11  -11  1.000000e+00  1.000000e+00  1.024000e+05  1.000000e+00  1.000000e+00
</event>
<event>
     5  9999  1.000000e+00  1.024000e+05  8.493754e-03  6.416823e-02
       11    -1     0     0     0     0  0.0000000000e+00  0.0000000000e+00  5.1200000000e+04  5.1200000000e+04  0.0000000000e+00 0. 9.
      -11    -1     0     0     0     0  0.0000000000e+00  0.0000000000e+00 -5.1200000000e+04  5.1200000000e+04  0.0000000000e+00 0. 9.
       25     2     1     2     0     0  0.0000000000e+00  0.0000000000e+00  0.0000000000e+00  1.0240000000e+05  1.0240000000e+05 0. 9.
       21     1     3     0   101   102  4.7970305495e+03 -3.0572890604e+04 -4.0788808000e+04  5.1200000000e+04  0.0000000000e+00 0. 9.
       21     1     3     0   102   101 -4.7970305495e+03  3.0572890604e+04  4.0788808000e+04  5.1200000000e+04  0.0000000000e+00 0. 9.
#pdf   11  -11  1.000000e+00  1.000000e+00  1.024000e+05  1.000000e+00  1.000000e+00
</event>
<event>
     5  9999  1.000000e+00  1.024000e+05  8.493754e-03  6.416823e-02
       11    -1     0     0     0     0  0.0000000000e+00  0.0000000000e+00  5.1200000000e+04  5.1200000000e+04  0.0000000000e+00 0. 9.
      -11    -1     0     0     0     0  0.0000000000e+00  0.0000000000e+00 -5.1200000000e+04  5.1200000000e+04  0.0000000000e+00 0. 9.
       25     2     1     2     0     0  0.0000000000e+00  0.0000000000e+00  0.0000000000e+00  1.0240000000e+05  1.0240000000e+05 0. 9.
       21     1     3     0   101   102 -2.5444883057e+03  2.4358947898e+03  5.1078684359e+04  5.1200000000e+04  0.0000000000e+00 0. 9.
       21     1     3     0   102   101  2.5444883057e+03 -2.4358947898e+03 -5.1078684359e+04  5.1200000000e+04  0.0000000000e+00 0. 9.
#pdf   11  -11  1.000000e+00  1.000000e+00  1.024000e+05  1.000000e+00  1.000000e+00
</event>
<event>
     5  9999  1.000000e+00  1.024000e+05  8.493754e-03  6.416823e-02
       11    -1     0     0     0     0  0.0000000000e+00  0.0000000000e+00  5.1200000000e+04  5.1200000000e+04  0.0000000000e+00 0. 9.
      -11    -1     0     0     0     0  0.0000000000e+00  0.0000000000e+00 -5.1200000000e+04  5.1200000000e+04  0.0000000000e+00 0. 9.
       25     2     1     2     0     0  0.0000000000e+00  0.0000000000e+00  0.0000000000e+00  1.0240000000e+05  1.0240000000e+05 0. 9.
       21     1     3     0   101   102  4.1467987311e+03  4.8395719893e+04 -1.6189452008e+04  5.1200000000e+04  0.0000000000e+00 0. 9.
       21     1     3     0   102   101 -4.1467987311e+03 -4.8395719893e+04  1.6189452008e+04  5.1200000000e+04  0.0000000000e+00 0. 9.
#pdf   11  -11  1.000000e+00  1.000000e+00  1.024000e+05  1.000000e+00  1.000000e+00
</event>
<event>
     5  9999  1.000000e+00  1.024000e+05  8.493754e-03  6.416823e-02
       11    -1     0     0     0     0  0.0000000000e+00  0.0000000000e+00  5.1200000000e+04  5.1200000000e+04  0.0000000000e+00 0. 9.
      -11    -1     0     0     0     0  0.0000000000e+00  0.0000000000e+00 -5.1200000000e+04  5.1200000000e+04  0.0000000000e+00 0. 9.
       25     2     1     2     0     0  0.0000000000e+00  0.0000000000e+00  0.0000000000e+00  1.0240000000e+05  1.0240000000e+05 0. 9.
       21     1     3     0   101   102 -9.1632028491e+03 -1.4068724056e+04  4.8368861026e+04  5.1200000000e+04  0.0000000000e+00 0. 9.
       21     1     3     0   102   101  9.1632028491e+03  1.4068724056e+04 -4.8368861026e+04  5.1200000000e+04  0.0000000000e+00 0. 9.
#pdf   11  -11  1.000000e+00  1.000000e+00  1.024000e+05  1.000000e+00  1.000000e+00
</event>
<event>
     5  9999  1.000000e+00  1.024000e+05  8.493754e-03  6.416823e-02
       11    -1     0     0     0     0  0.0000000000e+00  0.0000000000e+00  5.1200000000e+04  5.1200000000e+04  0.0000000000e+00 0. 9.
      -11    -1     0     0     0     0  0.0000000000e+00  0.0000000000e+00 -5.1200000000e+04  5.1200000000e+04  0.0000000000e+00 0. 9.
       25     2     1     2     0     0  0.0000000000e+00  0.0000000000e+00  0.0000000000e+00  1.0240000000e+05  1.0240000000e+05 0. 9.
       21     1     3     0   101   102 -1.0178465994e+04 -4.8783700758e+04  1.1746887688e+04  5.1200000000e+04  0.0000000000e+00 0. 9.
       21     1     3     0   102   101  1.0178465994e+04  4.8783700758e+04 -1.1746887688e+04  5.1200000000e+04  0.0000000000e+00 0. 9.
#pdf   11  -11  1.000000e+00  1.000000e+00  1.024000e+05  1.000000e+00  1.000000e+00
</event>
<event>
     5  9999  1.000000e+00  1.024000e+05  8.493754e-03  6.416823e-02
       11    -1     0     0     0     0  0.0000000000e+00  0.0000000000e+00  5.1200000000e+04  5.1200000000e+04  0.0000000000e+00 0. 9.
      -11    -1     0     0     0     0  0.0000000000e+00  0.0000000000e+00 -5.1200000000e+04  5.1200000000e+04  0.0000000000e+00 0. 9.
       25     2     1     2     0     0  0.0000000000e+00  0.0000000000e+00  0.0000000000e+00  1.0240000000e+05  1.0240000000e+05 0. 9.
       21     1     3     0   101   102  4.1252323546e+03  3.4391191024e+04  3.7705018737e+04  5.1200000000e+04  0.0000000000e+00 0. 9.
       21     1     3     0   102   101 -4.1252323546e+03 -3.4391191024e+04 -3.7705018737e+04  5.1200000000e+04  0.0000000000e+00 0. 9.
#pdf   11  -11  1.000000e+00  1.000000e+00  1.024000e+05  1.000000e+00  1.000000e+00
</event>
<event>
     5  9999  1.000000e+00  1.024000e+05  8.493754e-03  6.416823e-02
       11    -1     0     0     0     0  0.0000000000e+00  0.0000000000e+00  5.1200000000e+04  5.1200000000e+04  0.0000000000e+00 0. 9.
      -11    -1     0     0     0     0  0.0000000000e+00  0.0000000000e+00 -5.1200000000e+04  5.1200000000e+04  0.0000000000e+00 0. 9.
       25     2     1     2     0     0  0.0000000000e+00  0.0000000000e+00  0.0000000000e+00  1.0240000000e+05  1.0240000000e+05 0. 9.
       21     1     3     0   101   102  4.4601743625e+04 -2.4295037697e+04  6.4711365980e+03  5.1200000000e+04  0.0000000000e+00 0. 9.
       21     1     3     0   102   101 -4.4601743625e+04  2.4295037697e+04 -6.4711365980e+03  5.1200000000e+04  0.0000000000e+00 0. 9.
#pdf   11  -11  1.000000e+00  1.000000e+00  1.024000e+05  1.000000e+00  1.000000e+00
</event>
<event>
     5  9999  1.000000e+00  1.024000e+05  8.493754e-03  6.416823e-02
       11    -1     0     0     0     0  0.0000000000e+00  0.0000000000e+00  5.1200000000e+04  5.1200000000e+04  0.0000000000e+00 0. 9.
      -11    -1     0     0     0     0  0.0000000000e+00  0.0000000000e+00 -5.1200000000e+04  5.1200000000e+04  0.0000000000e+00 0. 9.
       25     2     1     2     0     0  0.0000000000e+00  0.0000000000e+00  0.0000000000e+00  1.0240000000e+05  1.0240000000e+05 0. 9.
       21     1     3     0   101   102 -4.8953997472e+04  9.3835693478e+03  1.1700203322e+04  5.1200000000e+04  0.0000000000e+00 0. 9.
       21     1     3     0   102   101  4.8953997472e+04 -9.3835693478e+03 -1.1700203322e+04  5.1200000000e+04  0.0000000000e+00 0. 9.
#pdf   11  -11  1.000000e+00  1.000000e+00  1.024000e+05  1.000000e+00  1.000000e+00
</event>
<event>
     5  9999  1.000000e+00  1.024000e+05  8.493754e-03  6.416823e-02
       11    -1     0     0     0     0  0.0000000000e+00  0.0000000000e+00  5.1200000000e+04  5.1200000000e+04  0.0000000000e+00 0. 9.
      -11    -1     0     0     0     0  0.0000000000e+00  0.0000000000e+00 -5.1200000000e+04  5.1200000000e+04  0.0000000000e+00 0. 9.
       25     2     1     2     0     0  0.0000000000e+00  0.0000000000e+00  0.0000000000e+00  1.0240000000e+05  1.0240000000e+05 0. 9.
       21     1     3     0   101   102 -1.5448948978e+03  4.4609221532e+04 -2.5081280950e+04  5.1200000000e+04  0.0000000000e+00 0. 9.
       21     1     3     0   102   101  1.5448948978e+03 -4.4609221532e+04  2.5081280950e+04  5.1200000000e+04  0.0000000000e+00 0. 9.
#pdf   11  -11  1.000000e+00  1.000000e+00  1.024000e+05  1.000000e+00  1.000000e+00
</event>
<event>
     5  9999  1.000000e+00  1.024000e+05  8.493754e-03  6.416823e-02
       11    -1     0     0     0     0  0.0000000000e+00  0.0000000000e+00  5.1200000000e+04  5.1200000000e+04  0.0000000000e+00 0. 9.
      -11    -1     0     0     0     0  0.0000000000e+00  0.0000000000e+00 -5.1200000000e+04  5.1200000000e+04  0.0000000000e+00 0. 9.
       25     2     1     2     0     0  0.0000000000e+00  0.0000000000e+00  0.0000000000e+00  1.0240000000e+05  1.0240000000e+05 0. 9.
       21     1     3     0   101   102  2.8651029771e+04  4.1443534170e+04  9.1099927860e+03  5.1200000000e+04  0.0000000000e+00 0. 9.
       21     1     3     0   102   101 -2.8651029771e+04 -4.1443534170e+04 -9.1099927860e+03  5.1200000000e+04  0.0000000000e+00 0. 9.
#pdf   11  -11  1.000000e+00  1.000000e+00  1.024000e+05  1.000000e+00  1.000000e+00
</event>
<event>
     5  9999  1.000000e+00  1.024000e+05  8.493754e-03  6.416823e-02
       11    -1     0     0     0     0  0.0000000000e+00  0.0000000000e+00  5.1200000000e+04  5.1200000000e+04  0.0000000000e+00 0. 9.
      -11    -1     0     0     0     0  0.0000000000e+00  0.0000000000e+00 -5.1200000000e+04  5.1200000000e+04  0.0000000000e+00 0. 9.
       25     2     1     2     0     0  0.0000000000e+00  0.0000000000e+00  0.0000000000e+00  1.0240000000e+05  1.0240000000e+05 0. 9.
       21     1     3     0   101   102  2.7015876194e+04 -1.5307389332e+04  4.0709535312e+04  5.1200000000e+04  0.0000000000e+00 0. 9.
       21     1     3     0   102   101 -2.7015876194e+04  1.5307389332e+04 -4.0709535312e+04  5.1200000000e+04  0.0000000000e+00 0. 9.
#pdf   11  -11  1.000000e+00  1.000000e+00  1.024000e+05  1.000000e+00  1.000000e+00
</event>
<event>
     5  9999  1.000000e+00  1.024000e+05  8.493754e-03  6.416823e-02
       11    -1     0     0     0     0  0.0000000000e+00  0.0000000000e+00  5.1200000000e+04  5.1200000000e+04  0.0000000000e+00 0. 9.
      -11    -1     0     0     0     0  0.0000000000e+00  0.0000000000e+00 -5.1200000000e+04  5.1200000000e+04  0.0000000000e+00 0. 9.
       25     2     1     2     0     0  0.0000000000e+00  0.0000000000e+00  0.0000000000e+00  1.0240000000e+05  1.0240000000e+05 0. 9.
       21     1     3     0   101   102 -2.6862323301e+03  3.9578700060e+04  3.2368976775e+04  5.1200000000e+04  0.0000000000e+00 0. 9.
       21     1     3     0   102   101  2.6862323301e+03 -3.9578700060e+04 -3.2368976775e+04  5.1200000000e+04  0.0000000000e+00 0. 9.
#pdf   11  -11  1.000000e+00  1.000000e+00  1.024000e+05  1.000000e+00  1.000000e+00
</event>
<event>
     5  9999  1.000000e+00  1.024000e+05  8.493754e-03  6.416823e-02
       11    -1     0     0     0     0  0.0000000000e+00  0.0000000000e+00  5.1200000000e+04  5.1200000000e+04  0.0000000000e+00 0. 9.
      -11    -1     0     0     0     0  0.0000000000e+00  0.0000000000e+00 -5.1200000000e+04  5.1200000000e+04  0.0000000000e+00 0. 9.
       25     2     1     2     0     0  0.0000000000e+00  0.0000000000e+00  0.0000000000e+00  1.0240000000e+05  1.0240000000e+05 0. 9.
       21     1     3     0   101   102  4.6488713509e+03  2.5430787323e+04 -4.4193925502e+04  5.1200000000e+04  0.0000000000e+00 0. 9.
       21     1     3     0   102   101 -4.6488713509e+03 -2.5430787323e+04  4.4193925502e+04  5.1200000000e+04  0.0000000000e+00 0. 9.
#pdf   11  -11  1.000000e+00  1.000000e+00  1.024000e+05  1.000000e+00  1.000000e+00
</event>
<event>
     5  9999  1.000000e+00  1.024000e+05  8.493754e-03  6.416823e-02
       11    -1     0     0     0     0  0.0000000000e+00  0.0000000000e+00  5.1200000000e+04  5.1200000000e+04  0.0000000000e+00 0. 9.
      -11    -1     0     0     0     0  0.0000000000e+00  0.0000000000e+00 -5.1200000000e+04  5.1200000000e+04  0.0000000000e+00 0. 9.
       25     2     1     2     0     0  0.0000000000e+00  0.0000000000e+00  0.0000000000e+00  1.0240000000e+05  1.0240000000e+05 0. 9.
       21     1     3     0   101   102 -1.6933705844e+04  4.4393229325e+04  1.9076970318e+04  5.1200000000e+04  0.0000000000e+00 0. 9.
       21     1     3     0   102   101  1.6933705844e+04 -4.4393229325e+04 -1.9076970318e+04  5.1200000000e+04  0.0000000000e+00 0. 9.
#pdf   11  -11  1.000000e+00  1.000000e+00  1.024000e+05  1.000000e+00  1.000000e+00
</event>
<event>
     5  9999  1.000000e+00  1.024000e+05  8.493754e-03  6.416823e-02
       11    -1     0     0     0     0  0.0000000000e+00  0.0000000000e+00  5.1200000000e+04  5.1200000000e+04  0.0000000000e+00 0. 9.
      -11    -1     0     0     0     0  0.0000000000e+00  0.0000000000e+00 -5.1200000000e+04  5.1200000000e+04  0.0000000000e+00 0. 9.
       25     2     1     2     0     0  0.0000000000e+00  0.0000000000e+00  0.0000000000e+00  1.0240000000e+05  1.0240000000e+05 0. 9.
       21     1     3     0   101   102 -7.4241326334e+03  4.9538614664e+04  1.0594711504e+04  5.1200000000e+04  0.0000000000e+00 0. 9.
       21     1     3     0   102   101  7.4241326334e+03 -4.9538614664e+04 -1.0594711504e+04  5.1200000000e+04  0.0000000000e+00 0. 9.
#pdf   11  -11  1.000000e+00  1.000000e+00  1.024000e+05  1.000000e+00  1.000000e+00
</event>
<event>
     5  9999  1.000000e+00  1.024000e+05  8.493754e-03  6.416823e-02
       11    -1     0     0     0     0  0.0000000000e+00  0.0000000000e+00  5.1200000000e+04  5.1200000000e+04  0.0000000000e+00 0. 9.
      -11    -1     0     0     0     0  0.0000000000e+00  0.0000000000e+00 -5.1200000000e+04  5.1200000000e+04  0.0000000000e+00 0. 9.
       25     2     1     2     0     0  0.0000000000e+00  0.0000000000e+00  0.0000000000e+00  1.0240000000e+05  1.0240000000e+05 0. 9.
       21     1     3     0   101   102 -4.4066107247e+04 -1.8758184457e+04 -1.8103831307e+04  5.1200000000e+04  0.0000000000e+00 0. 9.
       21     1     3     0   102   101  4.4066107247e+04  1.8758184457e+04  1.8103831307e+04  5.1200000000e+04  0.0000000000e+00 0. 9.
#pdf   11  -11  1.000000e+00  1.000000e+00  1.024000e+05  1.000000e+00  1.000000e+00
</event>
<event>
     5  9999  1.000000e+00  1.024000e+05  8.493754e-03  6.416823e-02
       11    -1     0     0     0     0  0.0000000000e+00  0.0000000000e+00  5.1200000000e+04  5.1200000000e+04  0.0000000000e+00 0. 9.
      -11    -1     0     0     0     0  0.0000000000e+00  0.0000000000e+00 -5.1200000000e+04  5.1200000000e+04  0.0000000000e+00 0. 9.
       25     2     1     2     0     0  0.0000000000e+00  0.0000000000e+00  0.0000000000e+00  1.0240000000e+05  1.0240000000e+05 0. 9.
       21     1     3     0   101   102  2.6668197783e+04  2.6729809492e+04  3.4579828102e+04  5.1200000000e+04  0.0000000000e+00 0. 9.
       21     1     3     0   102   101 -2.6668197783e+04 -2.6729809492e+04 -3.4579828102e+04  5.1200000000e+04  0.0000000000e+00 0. 9.
#pdf   11  -11  1.000000e+00  1.000000e+00  1.024000e+05  1.000000e+00  1.000000e+00
</event>
<event>
     5  9999  1.000000e+00  1.024000e+05  8.493754e-03  6.416823e-02
       11    -1     0     0     0     0  0.0000000000e+00  0.0000000000e+00  5.1200000000e+04  5.1200000000e+04  0.0000000000e+00 0. 9.
      -11    -1     0     0     0     0  0.0000000000e+00  0.0000000000e+00 -5.1200000000e+04  5.1200000000e+04  0.0000000000e+00 0. 9.
       25     2     1     2     0     0  0.0000000000e+00  0.0000000000e+00  0.0000000000e+00  1.0240000000e+05  1.0240000000e+05 0. 9.
       21     1     3     0   101   102 -1.0945640712e+04 -8.5805477638e+03 -4.9274812526e+04  5.1200000000e+04  0.0000000000e+00 0. 9.
       21     1     3     0   102   101  1.0945640712e+04  8.5805477638e+03  4.9274812526e+04  5.1200000000e+04  0.0000000000e+00 0. 9.
#pdf   11  -11  1.000000e+00  1.000000e+00  1.024000e+05  1.000000e+00  1.000000e+00
</event>
<event>
     5  9999  1.000000e+00  1.024000e+05  8.493754e-03  6.416823e-02
       11    -1     0     0     0     0  0.0000000000e+00  0.0000000000e+00  5.1200000000e+04  5.1200000000e+04  0.0000000000e+00 0. 9.
      -11    -1     0     0     0     0  0.0000000000e+00  0.0000000000e+00 -5.1200000000e+04  5.1200000000e+04  0.0000000000e+00 0. 9.
       25     2     1     2     0     0  0.0000000000e+00  0.0000000000e+00  0.0000000000e+00  1.0240000000e+05  1.0240000000e+05 0. 9.
       21     1     3     0   101   102  4.6461548633e+04  2.0894883823e+04 -5.1154988675e+03  5.1200000000e+04  0.0000000000e+00 0. 9.
       21     1     3     0   102   101 -4.6461548633e+04 -2.0894883823e+04  5.1154988675e+03  5.1200000000e+04  0.0000000000e+00 0. 9.
#pdf   11  -11  1.000000e+00  1.000000e+00  1.024000e+05  1.000000e+00  1.000000e+00
</event>
<event>
     5  9999  1.000000e+00  1.024000e+05  8.493754e-03  6.416823e-02
       11    -1     0     0     0     0  0.0000000000e+00  0.0000000000e+00  5.1200000000e+04  5.1200000000e+04  0.0000000000e+00 0. 9.
      -11    -1     0     0     0     0  0.0000000000e+00  0.0000000000e+00 -5.1200000000e+04  5.1200000000e+04  0.0000000000e+00 0. 9.
       25     2     1     2     0     0  0.0000000000e+00  0.0000000000e+00  0.0000000000e+00  1.0240000000e+05  1.0240000000e+05 0. 9.
       21     1     3     0   101   102 -6.7766416385e+03 -3.9219549753e+04 -3.2207825839e+04  5.1200000000e+04  0.0000000000e+00 0. 9.
       21     1     3     0   102   101  6.7766416385e+03  3.9219549753e+04  3.2207825839e+04  5.1200000000e+04  0.0000000000e+00 0. 9.
#pdf   11  -11  1.000000e+00  1.000000e+00  1.024000e+05  1.000000e+00  1.000000e+00
</event>
<event>
     5  9999  1.000000e+00  1.024000e+05  8.493754e-03  6.416823e-02
       11    -1     0     0     0     0  0.0000000000e+00  0.0000000000e+00  5.1200000000e+04  5.1200000000e+04  0.0000000000e+00 0. 9.
      -11    -1     0     0     0     0  0.0000000000e+00  0.0000000000e+00 -5.1200000000e+04  5.1200000000e+04  0.0000000000e+00 0. 9.
       25     2     1     2     0     0  0.0000000000e+00  0.0000000000e+00  0.0000000000e+00  1.0240000000e+05  1.0240000000e+05 0. 9.
       21     1     3     0   101   102 -1.7265808830e+04 -4.1518627987e+04  2.4485411484e+04  5.1200000000e+04  0.0000000000e+00 0. 9.
       21     1     3     0   102   101  1.7265808830e+04  4.1518627987e+04 -2.4485411484e+04  5.1200000000e+04  0.0000000000e+00 0. 9.
#pdf   11  -11  1.000000e+00  1.000000e+00  1.024000e+05  1.000000e+00  1.000000e+00
</event>
<event>
     5  9999  1.000000e+00  1.024000e+05  8.493754e-03  6.416823e-02
       11    -1     0     0     0     0  0.0000000000e+00  0.0000000000e+00  5.1200000000e+04  5.1200000000e+04  0.0000000000e+00 0. 9.
      -11    -1     0     0     0     0  0.0000000000e+00  0.0000000000e+00 -5.1200000000e+04  5.1200000000e+04  0.0000000000e+00 0. 9.
       25     2     1     2     0     0  0.0000000000e+00  0.0000000000e+00  0.0000000000e+00  1.0240000000e+05  1.0240000000e+05 0. 9.
       21     1     3     0   101   102  1.9946996580e+04 -4.7106365239e+04  2.1325293430e+03  5.1200000000e+04  0.0000000000e+00 0. 9.
       21     1     3     0   102   101 -1.9946996580e+04  4.7106365239e+04 -2.1325293430e+03  5.1200000000e+04  0.0000000000e+00 0. 9.
#pdf   11  -11  1.000000e+00  1.000000e+00  1.024000e+05  1.000000e+00  1.000000e+00
</event>
<event>
     5  9999  1.000000e+00  1.024000e+05  8.493754e-03  6.416823e-02
       11    -1     0     0     0     0  0.0000000000e+00  0.0000000000e+00  5.1200000000e+04  5.1200000000e+04  0.0000000000e+00 0. 9.
      -11    -1     0     0     0     0  0.0000000000e+00  0.0000000000e+00 -5.1200000000e+04  5.1200000000e+04  0.0000000000e+00 0. 9.
       25     2     1     2     0     0  0.0000000000e+00  0.0000000000e+00  0.0000000000e+00  1.0240000000e+05  1.0240000000e+05 0. 9.
       21     1     3     0   101   102 -1.8381683972e+04 -4.4080904392e+04  1.8450679183e+04  5.1200000000e+04  0.0000000000e+00 0. 9.
       21     1     3     0   102   101  1.8381683972e+04  4.4080904392e+04 -1.8450679183e+04  5.1200000000e+04  0.0000000000e+00 0. 9.
#pdf   11  -11  1.000000e+00  1.000000e+00  1.024000e+05  1.000000e+00  1.000000e+00
</event>
<event>
     5  9999  1.000000e+00  1.024000e+05  8.493754e-03  6.416823e-02
       11    -1     0     0     0     0  0.0000000000e+00  0.0000000000e+00  5.1200000000e+04  5.1200000000e+04  0.0000000000e+00 0. 9.
      -11    -1     0     0     0     0  0.0000000000e+00  0.0000000000e+00 -5.1200000000e+04  5.1200000000e+04  0.0000000000e+00 0. 9.
       25     2     1     2     0     0  0.0000000000e+00  0.0000000000e+00  0.0000000000e+00  1.0240000000e+05  1.0240000000e+05 0. 9.
       21     1     3     0   101   102 -4.6055250049e+04 -1.3618572406e+04 -1.7745095901e+04  5.1200000000e+04  0.0000000000e+00 0. 9.
       21     1     3     0   102   101  4.6055250049e+04  1.3618572406e+04  1.7745095901e+04  5.1200000000e+04  0.0000000000e+00 0. 9.
#pdf   11  -11  1.000000e+00  1.000000e+00  1.024000e+05  1.000000e+00  1.000000e+00
</event>
<event>
     5  9999  1.000000e+00  1.024000e+05  8.493754e-03  6.416823e-02
       11    -1     0     0     0     0  0.0000000000e+00  0.0000000000e+00  5.1200000000e+04  5.1200000000e+04  0.0000000000e+00 0. 9.
      -11    -1     0     0     0     0  0.0000000000e+00  0.0000000000e+00 -5.1200000000e+04  5.1200000000e+04  0.0000000000e+00 0. 9.
       25     2     1     2     0     0  0.0000000000e+00  0.0000000000e+00  0.0000000000e+00  1.0240000000e+05  1.0240000000e+05 0. 9.
       21     1     3     0   101   102  4.7998865871e+04  1.4596349386e+04  1.0222302076e+04  5.1200000000e+04  0.0000000000e+00 0. 9.
       21     1     3     0   102   101 -4.7998865871e+04 -1.4596349386e+04 -1.0222302076e+04  5.1200000000e+04  0.0000000000e+00 0. 9.
#pdf   11  -11  1.000000e+00  1.000000e+00  1.024000e+05  1.000000e+00  1.000000e+00
</event>
<event>
     5  9999  1.000000e+00  1.024000e+05  8.493754e-03  6.416823e-02
       11    -1     0     0     0     0  0.0000000000e+00  0.0000000000e+00  5.1200000000e+04  5.1200000000e+04  0.0000000000e+00 0. 9.
      -11    -1     0     0     0     0  0.0000000000e+00  0.0000000000e+00 -5.1200000000e+04  5.1200000000e+04  0.0000000000e+00 0. 9.
       25     2     1     2     0     0  0.0000000000e+00  0.0000000000e+00  0.0000000000e+00  1.0240000000e+05  1.0240000000e+05 0. 9.
       21     1     3     0   101   102 -1.8554909666e+04 -4.6861132258e+04  9.0105277739e+03  5.1200000000e+04  0.0000000000e+00 0. 9.
       21     1     3     0   102   101  1.8554909666e+04  4.6861132258e+04 -9.0105277739e+03  5.1200000000e+04  0.0000000000e+00 0. 9.
#pdf   11  -11  1.000000e+00  1.000000e+00  1.024000e+05  1.000000e+00  1.000000e+00
</event>
<event>
     5  9999  1.000000e+00  1.024000e+05  8.493754e-03  6.416823e-02
       11    -1     0     0     0     0  0.0000000000e+00  0.0000000000e+00  5.1200000000e+04  5.1200000000e+04  0.0000000000e+00 0. 9.
      -11    -1     0     0     0     0  0.0000000000e+00  0.0000000000e+00 -5.1200000000e+04  5.1200000000e+04  0.0000000000e+00 0. 9.
       25     2     1     2     0     0  0.0000000000e+00  0.0000000000e+00  0.0000000000e+00  1.0240000000e+05  1.0240000000e+05 0. 9.
       21     1     3     0   101   102 -4.3224599393e+03 -2.2702025090e+04  4.5687792646e+04  5.1200000000e+04  0.0000000000e+00 0. 9.
       21     1     3     0   102   101  4.3224599393e+03  2.2702025090e+04 -4.5687792646e+04  5.1200000000e+04  0.0000000000e+00 0. 9.
#pdf   11  -11  1.000000e+00  1.000000e+00  1.024000e+05  1.000000e+00  1.000000e+00
</event>
<event>
     5  9999  1.000000e+00  1.024000e+05  8.493754e-03  6.416823e-02
       11    -1     0     0     0     0  0.0000000000e+00  0.0000000000e+00  5.1200000000e+04  5.1200000000e+04  0.0000000000e+00 0. 9.
      -11    -1     0     0     0     0  0.0000000000e+00  0.0000000000e+00 -5.1200000000e+04  5.1200000000e+04  0.0000000000e+00 0. 9.
       25     2     1     2     0     0  0.0000000000e+00  0.0000000000e+00  0.0000000000e+00  1.0240000000e+05  1.0240000000e+05 0. 9.
       21     1     3     0   101   102  5.0696866467e+04 -6.9452160312e+03  1.7411791088e+03  5.1200000000e+04  0.0000000000e+00 0. 9.
       21     1     3     0   102   101 -5.0696866467e+04  6.9452160312e+03 -1.7411791088e+03  5.1200000000e+04  0.0000000000e+00 0. 9.
#pdf   11  -11  1.000000e+00  1.000000e+00  1.024000e+05  1.000000e+00  1.000000e+00
</event>
<event>
     5  9999  1.000000e+00  1.024000e+05  8.493754e-03  6.416823e-02
       11    -1     0     0     0     0  0.0000000000e+00  0.0000000000e+00  5.1200000000e+04  5.1200000000e+04  0.0000000000e+00 0. 9.
      -11    -1     0     0     0     0  0.0000000000e+00  0.0000000000e+00 -5.1200000000e+04  5.1200000000e+04  0.0000000000e+00 0. 9.
       25     2     1     2     0     0  0.0000000000e+00  0.0000000000e+00  0.0000000000e+00  1.0240000000e+05  1.0240000000e+05 0. 9.
       21     1     3     0   101   102  4.7394986625e+04  1.8832216085e+04  4.5280106206e+03  5.1200000000e+04  0.0000000000e+00 0. 9.
       21     1     3     0   102   101 -4.7394986625e+04 -1.8832216085e+04 -4.5280106206e+03  5.1200000000e+04  0.0000000000e+00 0. 9.
#pdf   11  -11  1.000000e+00  1.000000e+00  1.024000e+05  1.000000e+00  1.000000e+00
</event>
<event>
     5  9999  1.000000e+00  1.024000e+05  8.493754e-03  6.416823e-02
       11    -1     0     0     0     0  0.0000000000e+00  0.0000000000e+00  5.1200000000e+04  5.1200000000e+04  0.0000000000e+00 0. 9.
      -11    -1     0     0     0     0  0.0000000000e+00  0.0000000000e+00 -5.1200000000e+04  5.1200000000e+04  0.0000000000e+00 0. 9.
       25     2     1     2     0     0  0.0000000000e+00  0.0000000000e+00  0.0000000000e+00  1.0240000000e+05  1.0240000000e+05 0. 9.
       21     1     3     0   101   102  3.9142070188e+04 -2.2141905455e+04  2.4475995673e+04  5.1200000000e+04  0.0000000000e+00 0. 9.
       21     1     3     0   102   101 -3.9142070188e+04  2.2141905455e+04 -2.4475995673e+04  5.1200000000e+04  0.0000000000e+00 0. 9.
#pdf   11  -11  1.000000e+00  1.000000e+00  1.024000e+05  1.000000e+00  1.000000e+00
</event>
<event>
     5  9999  1.000000e+00  1.024000e+05  8.493754e-03  6.416823e-02
       11    -1     0     0     0     0  0.0000000000e+00  0.0000000000e+00  5.1200000000e+04  5.1200000000e+04  0.0000000000e+00 0. 9.
      -11    -1     0     0     0     0  0.0000000000e+00  0.0000000000e+00 -5.1200000000e+04  5.1200000000e+04  0.0000000000e+00 0. 9.
       25     2     1     2     0     0  0.0000000000e+00  0.0000000000e+00  0.0000000000e+00  1.0240000000e+05  1.0240000000e+05 0. 9.
       21     1     3     0   101   102  2.0876567277e+04 -7.5685570892e+03 -4.6133782441e+04  5.1200000000e+04  0.0000000000e+00 0. 9.
       21     1     3     0   102   101 -2.0876567277e+04  7.5685570892e+03  4.6133782441e+04  5.1200000000e+04  0.0000000000e+00 0. 9.
#pdf   11  -11  1.000000e+00  1.000000e+00  1.024000e+05  1.000000e+00  1.000000e+00
</event>
<event>
     5  9999  1.000000e+00  1.024000e+05  8.493754e-03  6.416823e-02
       11    -1     0     0     0     0  0.0000000000e+00  0.0000000000e+00  5.1200000000e+04  5.1200000000e+04  0.0000000000e+00 0. 9.
      -11    -1     0     0     0     0  0.0000000000e+00  0.0000000000e+00 -5.1200000000e+04  5.1200000000e+04  0.0000000000e+00 0. 9.
       25     2     1     2     0     0  0.0000000000e+00  0.0000000000e+00  0.0000000000e+00  1.0240000000e+05  1.0240000000e+05 0. 9.
       21     1     3     0   101   102  3.6897298156e+04  3.2737801246e+04  1.3720996987e+04  5.1200000000e+04  0.0000000000e+00 0. 9.
       21     1     3     0   102   101 -3.6897298156e+04 -3.2737801246e+04 -1.3720996987e+04  5.1200000000e+04  0.0000000000e+00 0. 9.
#pdf   11  -11  1.000000e+00  1.000000e+00  1.024000e+05  1.000000e+00  1.000000e+00
</event>
<event>
     5  9999  1.000000e+00  1.024000e+05  8.493754e-03  6.416823e-02
       11    -1     0     0     0     0  0.0000000000e+00  0.0000000000e+00  5.1200000000e+04  5.1200000000e+04  0.0000000000e+00 0. 9.
      -11    -1     0     0     0     0  0.0000000000e+00  0.0000000000e+00 -5.1200000000e+04  5.1200000000e+04  0.0000000000e+00 0. 9.
       25     2     1     2     0     0  0.0000000000e+00  0.0000000000e+00  0.0000000000e+00  1.0240000000e+05  1.0240000000e+05 0. 9.
       21     1     3     0   101   102  4.3436991810e+04  7.6771976394e+03  2.5994775992e+04  5.1200000000e+04  0.0000000000e+00 0. 9.
       21     1     3     0   102   101 -4.3436991810e+04 -7.6771976394e+03 -2.5994775992e+04  5.1200000000e+04  0.0000000000e+00 0. 9.
#pdf   11  -11  1.000000e+00  1.000000e+00  1.024000e+05  1.000000e+00  1.000000e+00
</event>
<event>
     5  9999  1.000000e+00  1.024000e+05  8.493754e-03  6.416823e-02
       11    -1     0     0     0     0  0.0000000000e+00  0.0000000000e+00  5.1200000000e+04  5.1200000000e+04  0.0000000000e+00 0. 9.
      -11    -1     0     0     0     0  0.0000000000e+00  0.0000000000e+00 -5.1200000000e+04  5.1200000000e+04  0.0000000000e+00 0. 9.
       25     2     1     2     0     0  0.0000000000e+00  0.0000000000e+00  0.0000000000e+00  1.0240000000e+05  1.0240000000e+05 0. 9.
       21     1     3     0   101   102  1.4660438605e+04 -3.3001911716e+04  3.6295803655e+04  5.1200000000e+04  0.0000000000e+00 0. 9.
       21     1     3     0   102   101 -1.4660438605e+04  3.3001911716e+04 -3.6295803655e+04  5.1200000000e+04  0.0000000000e+00 0. 9.
#pdf   11  -11  1.000000e+00  1.000000e+00  1.024000e+05  1.000000e+00  1.000000e+00
</event>
<event>
     5  9999  1.000000e+00  1.024000e+05  8.493754e-03  6.416823e-02
       11    -1     0     0     0     0  0.0000000000e+00  0.0000000000e+00  5.1200000000e+04  5.1200000000e+04  0.0000000000e+00 0. 9.
      -11    -1     0     0     0     0  0.0000000000e+00  0.0000000000e+00 -5.1200000000e+04  5.1200000000e+04  0.0000000000e+00 0. 9.
       25     2     1     2     0     0  0.0000000000e+00  0.0000000000e+00  0.0000000000e+00  1.0240000000e+05  1.0240000000e+05 0. 9.
       21     1     3     0   101   102 -8.4616642524e+03 -1.4882299903e+04  4.8253055734e+04  5.1200000000e+04  0.0000000000e+00 0. 9.
       21     1     3     0   102   101  8.4616642524e+03  1.4882299903e+04 -4.8253055734e+04  5.1200000000e+04  0.0000000000e+00 0. 9.
#pdf   11  -11  1.000000e+00  1.000000e+00  1.024000e+05  1.000000e+00  1.000000e+00
</event>
<event>
     5  9999  1.000000e+00  1.024000e+05  8.493754e-03  6.416823e-02
       11    -1     0     0     0     0  0.0000000000e+00  0.0000000000e+00  5.1200000000e+04  5.1200000000e+04  0.0000000000e+00 0. 9.
      -11    -1     0     0     0     0  0.0000000000e+00  0.0000000000e+00 -5.1200000000e+04  5.1200000000e+04  0.0000000000e+00 0. 9.
       25     2     1     2     0     0  0.0000000000e+00  0.0000000000e+00  0.0000000000e+00  1.0240000000e+05  1.0240000000e+05 0. 9.
       21     1     3     0   101   102  4.5862142074e+03  2.5963900169e+04 -4.3889435258e+04  5.1200000000e+04  0.0000000000e+00 0. 9.
       21     1     3     0   102   101 -4.5862142074e+03 -2.5963900169e+04  4.3889435258e+04  5.1200000000e+04  0.0000000000e+00 0. 9.
#pdf   11  -11  1.000000e+00  1.000000e+00  1.024000e+05  1.000000e+00  1.000000e+00
</event>
<event>
     5  9999  1.000000e+00  1.024000e+05  8.493754e-03  6.416823e-02
       11    -1     0     0     0     0  0.0000000000e+00  0.0000000000e+00  5.1200000000e+04  5.1200000000e+04  0.0000000000e+00 0. 9.
      -11    -1     0     0     0     0  0.0000000000e+00  0.0000000000e+00 -5.1200000000e+04  5.1200000000e+04  0.0000000000e+00 0. 9.
       25     2     1     2     0     0  0.0000000000e+00  0.0000000000e+00  0.0000000000e+00  1.0240000000e+05  1.0240000000e+05 0. 9.
       21     1     3     0   101   102 -2.8390513753e+04 -2.6504975891e+04  3.3360230542e+04  5.1200000000e+04  0.0000000000e+00 0. 9.
       21     1     3     0   102   101  2.8390513753e+04  2.6504975891e+04 -3.3360230542e+04  5.1200000000e+04  0.0000000000e+00 0. 9.
#pdf   11  -11  1.000000e+00  1.000000e+00  1.024000e+05  1.000000e+00  1.000000e+00
</event>
<event>
     5  9999  1.000000e+00  1.024000e+05  8.493754e-03  6.416823e-02
       11    -1     0     0     0     0  0.0000000000e+00  0.0000000000e+00  5.1200000000e+04  5.1200000000e+04  0.0000000000e+00 0. 9.
      -11    -1     0     0     0     0  0.0000000000e+00  0.0000000000e+00 -5.1200000000e+04  5.1200000000e+04  0.0000000000e+00 0. 9.
       25     2     1     2     0     0  0.0000000000e+00  0.0000000000e+00  0.0000000000e+00  1.0240000000e+05  1.0240000000e+05 0. 9.
       21     1     3     0   101   102 -1.2454815487e+04  3.3855914821e+04  3.6333106154e+04  5.1200000000e+04  0.0000000000e+00 0. 9.
       21     1     3     0   102   101  1.2454815487e+04 -3.3855914821e+04 -3.6333106154e+04  5.1200000000e+04  0.0000000000e+00 0. 9.
#pdf   11  -11  1.000000e+00  1.000000e+00  1.024000e+05  1.000000e+00  1.000000e+00
</event>
<event>
     5  9999  1.000000e+00  1.024000e+05  8.493754e-03  6.416823e-02
       11    -1     0     0     0     0  0.0000000000e+00  0.0000000000e+00  5.1200000000e+04  5.1200000000e+04  0.0000000000e+00 0. 9.
      -11    -1     0     0     0     0  0.0000000000e+00  0.0000000000e+00 -5.1200000000e+04  5.1200000000e+04  0.0000000000e+00 0. 9.
       25     2     1     2     0     0  0.0000000000e+00  0.0000000000e+00  0.0000000000e+00  1.0240000000e+05  1.0240000000e+05 0. 9.
       21     1     3     0   101   102 -4.6548995791e+04 -5.1732237540e+03  2.0684988442e+04  5.1200000000e+04  0.0000000000e+00 0. 9.
       21     1     3     0   102   101  4.6548995791e+04  5.1732237540e+03 -2.0684988442e+04  5.1200000000e+04  0.0000000000e+00 0. 9.
#pdf   11  -11  1.000000e+00  1.000000e+00  1.024000e+05  1.000000e+00  1.000000e+00
</event>
<event>
     5  9999  1.000000e+00  1.024000e+05  8.493754e-03  6.416823e-02
       11    -1     0     0     0     0  0.0000000000e+00  0.0000000000e+00  5.1200000000e+04  5.1200000000e+04  0.0000000000e+00 0. 9.
      -11    -1     0     0     0     0  0.0000000000e+00  0.0000000000e+00 -5.1200000000e+04  5.1200000000e+04  0.0000000000e+00 0. 9.
       25     2     1     2     0     0  0.0000000000e+00  0.0000000000e+00  0.0000000000e+00  1.0240000000e+05  1.0240000000e+05 0. 9.
       21     1     3     0   101   102  4.4524645168e+04  1.5545991552e+04 -1.9932840223e+04  5.1200000000e+04  0.0000000000e+00 0. 9.
       21     1     3     0   102   101 -4.4524645168e+04 -1.5545991552e+04  1.9932840223e+04  5.1200000000e+04  0.0000000000e+00 0. 9.
#pdf   11  -11  1.000000e+00  1.000000e+00  1.024000e+05  1.000000e+00  1.000000e+00
</event>
<event>
     5  9999  1.000000e+00  1.024000e+05  8.493754e-03  6.416823e-02
       11    -1     0     0     0     0  0.0000000000e+00  0.0000000000e+00  5.1200000000e+04  5.1200000000e+04  0.0000000000e+00 0. 9.
      -11    -1     0     0     0     0  0.0000000000e+00  0.0000000000e+00 -5.1200000000e+04  5.1200000000e+04  0.0000000000e+00 0. 9.
       25     2     1     2     0     0  0.0000000000e+00  0.0000000000e+00  0.0000000000e+00  1.0240000000e+05  1.0240000000e+05 0. 9.
       21     1     3     0   101   102 -4.2640848005e+04  1.0998053774e+04 -2.6119741473e+04  5.1200000000e+04  0.0000000000e+00 0. 9.
       21     1     3     0   102   101  4.2640848005e+04 -1.0998053774e+04  2.6119741473e+04  5.1200000000e+04  0.0000000000e+00 0. 9.
#pdf   11  -11  1.000000e+00  1.000000e+00  1.024000e+05  1.000000e+00  1.000000e+00
</event>
<event>
     5  9999  1.000000e+00  1.024000e+05  8.493754e-03  6.416823e-02
       11    -1     0     0     0     0  0.0000000000e+00  0.0000000000e+00  5.1200000000e+04  5.1200000000e+04  0.0000000000e+00 0. 9.
      -11    -1     0     0     0     0  0.0000000000e+00  0.0000000000e+00 -5.1200000000e+04  5.1200000000e+04  0.0000000000e+00 0. 9.
       25     2     1     2     0     0  0.0000000000e+00  0.0000000000e+00  0.0000000000e+00  1.0240000000e+05  1.0240000000e+05 0. 9.
       21     1     3     0   101   102 -4.1438296384e+04  1.4855626040e+04  2.6146088958e+04  5.1200000000e+04  0.0000000000e+00 0. 9.
       21     1     3     0   102   101  4.1438296384e+04 -1.4855626040e+04 -2.6146088958e+04  5.1200000000e+04  0.0000000000e+00 0. 9.
#pdf   11  -11  1.000000e+00  1.000000e+00  1.024000e+05  1.000000e+00  1.000000e+00
</event>
<event>
     5  9999  1.000000e+00  1.024000e+05  8.493754e-03  6.416823e-02
       11    -1     0     0     0     0  0.0000000000e+00  0.0000000000e+00  5.1200000000e+04  5.1200000000e+04  0.0000000000e+00 0. 9.
      -11    -1     0     0     0     0  0.0000000000e+00  0.0000000000e+00 -5.1200000000e+04  5.1200000000e+04  0.0000000000e+00 0. 9.
       25     2     1     2     0     0  0.0000000000e+00  0.0000000000e+00  0.0000000000e+00  1.0240000000e+05  1.0240000000e+05 0. 9.
       21     1     3     0   101   102 -9.6772487251e+03  4.7690339953e+04 -1.5919244086e+04  5.1200000000e+04  0.0000000000e+00 0. 9.
       21     1     3     0   102   101  9.6772487251e+03 -4.7690339953e+04  1.5919244086e+04  5.1200000000e+04  0.0000000000e+00 0. 9.
#pdf   11  -11  1.000000e+00  1.000000e+00  1.024000e+05  1.000000e+00  1.000000e+00
</event>
<event>
     5  9999  1.000000e+00  1.024000e+05  8.493754e-03  6.416823e-02
       11    -1     0     0     0     0  0.0000000000e+00  0.0000000000e+00  5.1200000000e+04  5.1200000000e+04  0.0000000000e+00 0. 9.
      -11    -1     0     0     0     0  0.0000000000e+00  0.0000000000e+00 -5.1200000000e+04  5.1200000000e+04  0.0000000000e+00 0. 9.
       25     2     1     2     0     0  0.0000000000e+00  0.0000000000e+00  0.0000000000e+00  1.0240000000e+05  1.0240000000e+05 0. 9.
       21     1     3     0   101   102 -3.3733254115e+03  4.4955965281e+04 -2.4269772585e+04  5.1200000000e+04  0.0000000000e+00 0. 9.
       21     1     3     0   102   101  3.3733254115e+03 -4.4955965281e+04  2.4269772585e+04  5.1200000000e+04  0.0000000000e+00 0. 9.
#pdf   11  -11  1.000000e+00  1.000000e+00  1.024000e+05  1.000000e+00  1.000000e+00
</event>
<event>
     5  9999  1.000000e+00  1.024000e+05  8.493754e-03  6.416823e-02
       11    -1     0     0     0     0  0.0000000000e+00  0.0000000000e+00  5.1200000000e+04  5.1200000000e+04  0.0000000000e+00 0. 9.
      -11    -1     0     0     0     0  0.0000000000e+00  0.0000000000e+00 -5.1200000000e+04  5.1200000000e+04  0.0000000000e+00 0. 9.
       25     2     1     2     0     0  0.0000000000e+00  0.0000000000e+00  0.0000000000e+00  1.0240000000e+05  1.0240000000e+05 0. 9.
       21     1     3     0   101   102 -5.0742102000e+04 -5.7924930080e+03  3.6229972924e+03  5.1200000000e+04  0.0000000000e+00 0. 9.
       21     1     3     0   102   101  5.0742102000e+04  5.7924930080e+03 -3.6229972924e+03  5.1200000000e+04  0.0000000000e+00 0. 9.
#pdf   11  -11  1.000000e+00  1.000000e+00  1.024000e+05  1.000000e+00  1.000000e+00
</event>
<event>
     5  9999  1.000000e+00  1.024000e+05  8.493754e-03  6.416823e-02
       11    -1     0     0     0     0  0.0000000000e+00  0.0000000000e+00  5.1200000000e+04  5.1200000000e+04  0.0000000000e+00 0. 9.
      -11    -1     0     0     0     0  0.0000000000e+00  0.0000000000e+00 -5.1200000000e+04  5.1200000000e+04  0.0000000000e+00 0. 9.
       25     2     1     2     0     0  0.0000000000e+00  0.0000000000e+00  0.0000000000e+00  1.0240000000e+05  1.0240000000e+05 0. 9.
       21     1     3     0   101   102  3.6098681390e+04  1.4270581862e+04  3.3386759280e+04  5.1200000000e+04  0.0000000000e+00 0. 9.
       21     1     3     0   102   101 -3.6098681390e+04 -1.4270581862e+04 -3.3386759280e+04  5.1200000000e+04  0.0000000000e+00 0. 9.
#pdf   11  -11  1.000000e+00  1.000000e+00  1.024000e+05  1.000000e+00  1.000000e+00
</event>
<event>
     5  9999  1.000000e+00  1.024000e+05  8.493754e-03  6.416823e-02
       11    -1     0     0     0     0  0.0000000000e+00  0.0000000000e+00  5.1200000000e+04  5.1200000000e+04  0.0000000000e+00 0. 9.
      -11    -1     0     0     0     0  0.0000000000e+00  0.0000000000e+00 -5.1200000000e+04  5.1200000000e+04  0.0000000000e+00 0. 9.
       25     2     1     2     0     0  0.0000000000e+00  0.0000000000e+00  0.0000000000e+00  1.0240000000e+05  1.0240000000e+05 0. 9.
       21     1     3     0   101   102 -2.8256091100e+04 -2.8342587504e+04  3.1933227982e+04  5.1200000000e+04  0.0000000000e+00 0. 9.
       21     1     3     0   102   101  2.8256091100e+04  2.8342587504e+04 -3.1933227982e+04  5.1200000000e+04  0.0000000000e+00 0. 9.
#pdf   11  -11  1.000000e+00  1.000000e+00  1.024000e+05  1.000000e+00  1.000000e+00
</event>
<event>
     5  9999  1.000000e+00  1.024000e+05  8.493754e-03  6.416823e-02
       11    -1     0     0     0     0  0.0000000000e+00  0.0000000000e+00  5.1200000000e+04  5.1200000000e+04  0.0000000000e+00 0. 9.
      -11    -1     0     0     0     0  0.0000000000e+00  0.0000000000e+00 -5.1200000000e+04  5.1200000000e+04  0.0000000000e+00 0. 9.
       25     2     1     2     0     0  0.0000000000e+00  0.0000000000e+00  0.0000000000e+00  1.0240000000e+05  1.0240000000e+05 0. 9.
       21     1     3     0   101   102  3.2031440406e+03  5.1062026196e+04 -1.9619757899e+03  5.1200000000e+04  0.0000000000e+00 0. 9.
       21     1     3     0   102   101 -3.2031440406e+03 -5.1062026196e+04  1.9619757899e+03  5.1200000000e+04  0.0000000000e+00 0. 9.
#pdf   11  -11  1.000000e+00  1.000000e+00  1.024000e+05  1.000000e+00  1.000000e+00
</event>
<event>
     5  9999  1.000000e+00  1.024000e+05  8.493754e-03  6.416823e-02
       11    -1     0     0     0     0  0.0000000000e+00  0.0000000000e+00  5.1200000000e+04  5.1200000000e+04  0.0000000000e+00 0. 9.
      -11    -1     0     0     0     0  0.0000000000e+00  0.0000000000e+00 -5.1200000000e+04  5.1200000000e+04  0.0000000000e+00 0. 9.
       25     2     1     2     0     0  0.0000000000e+00  0.0000000000e+00  0.0000000000e+00  1.0240000000e+05  1.0240000000e+05 0. 9.
       21     1     3     0   101   102 -2.2038955670e+04 -1.6963676346e+04 -4.2987883384e+04  5.1200000000e+04  0.0000000000e+00 0. 9.
       21     1     3     0   102   101  2.2038955670e+04  1.6963676346e+04  4.2987883384e+04  5.1200000000e+04  0.0000000000e+00 0. 9.
#pdf   11  -11  1.000000e+00  1.000000e+00  1.024000e+05  1.000000e+00  1.000000e+00
</event>
<event>
     5  9999  1.000000e+00  1.024000e+05  8.493754e-03  6.416823e-02
       11    -1     0     0     0     0  0.0000000000e+00  0.0000000000e+00  5.1200000000e+04  5.1200000000e+04  0.0000000000e+00 0. 9.
      -11    -1     0     0     0     0  0.0000000000e+00  0.0000000000e+00 -5.1200000000e+04  5.1200000000e+04  0.0000000000e+00 0. 9.
       25     2     1     2     0     0  0.0000000000e+00  0.0000000000e+00  0.0000000000e+00  1.0240000000e+05  1.0240000000e+05 0. 9.
       21     1     3     0   101   102 -4.5792772668e+04 -2.2851712647e+03 -2.2786837509e+04  5.1200000000e+04  0.0000000000e+00 0. 9.
       21     1     3     0   102   101  4.5792772668e+04  2.2851712647e+03  2.2786837509e+04  5.1200000000e+04  0.0000000000e+00 0. 9.
#pdf   11  -11  1.000000e+00  1.000000e+00  1.024000e+05  1.000000e+00  1.000000e+00
</event>
<event>
     5  9999  1.000000e+00  1.024000e+05  8.493754e-03  6.416823e-02
       11    -1     0     0     0     0  0.0000000000e+00  0.0000000000e+00  5.1200000000e+04  5.1200000000e+04  0.0000000000e+00 0. 9.
      -11    -1     0     0     0     0  0.0000000000e+00  0.0000000000e+00 -5.1200000000e+04  5.1200000000e+04  0.0000000000e+00 0. 9.
       25     2     1     2     0     0  0.0000000000e+00  0.0000000000e+00  0.0000000000e+00  1.0240000000e+05  1.0240000000e+05 0. 9.
       21     1     3     0   101   102 -2.2253525320e+04 -3.5971040795e+04 -2.8849693845e+04  5.1200000000e+04  0.0000000000e+00 0. 9.
       21     1     3     0   102   101  2.2253525320e+04  3.5971040795e+04  2.8849693845e+04  5.1200000000e+04  0.0000000000e+00 0. 9.
#pdf   11  -11  1.000000e+00  1.000000e+00  1.024000e+05  1.000000e+00  1.000000e+00
</event>
<event>
     5  9999  1.000000e+00  1.024000e+05  8.493754e-03  6.416823e-02
       11    -1     0     0     0     0  0.0000000000e+00  0.0000000000e+00  5.1200000000e+04  5.1200000000e+04  0.0000000000e+00 0. 9.
      -11    -1     0     0     0     0  0.0000000000e+00  0.0000000000e+00 -5.1200000000e+04  5.1200000000e+04  0.0000000000e+00 0. 9.
       25     2     1     2     0     0  0.0000000000e+00  0.0000000000e+00  0.0000000000e+00  1.0240000000e+05  1.0240000000e+05 0. 9.
       21     1     3     0   101   102 -1.7448028906e+04 -1.6487466801e+04  4.5223552777e+04  5.1200000000e+04  0.0000000000e+00 0. 9.
       21     1     3     0   102   101  1.7448028906e+04  1.6487466801e+04 -4.5223552777e+04  5.1200000000e+04  0.0000000000e+00 0. 9.
#pdf   11  -11  1.000000e+00  1.000000e+00  1.024000e+05  1.000000e+00  1.000000e+00
</event>
<event>
     5  9999  1.000000e+00  1.024000e+05  8.493754e-03  6.416823e-02
       11    -1     0     0     0     0  0.0000000000e+00  0.0000000000e+00  5.1200000000e+04  5.1200000000e+04  0.0000000000e+00 0. 9.
      -11    -1     0     0     0     0  0.0000000000e+00  0.0000000000e+00 -5.1200000000e+04  5.1200000000e+04  0.0000000000e+00 0. 9.
       25     2     1     2     0     0  0.0000000000e+00  0.0000000000e+00  0.0000000000e+00  1.0240000000e+05  1.0240000000e+05 0. 9.
       21     1     3     0   101   102 -1.0984159045e+04 -3.5531831708e+04  3.5189162899e+04  5.1200000000e+04  0.0000000000e+00 0. 9.
       21     1     3     0   102   101  1.0984159045e+04  3.5531831708e+04 -3.5189162899e+04  5.1200000000e+04  0.0000000000e+00 0. 9.
#pdf   11  -11  1.000000e+00  1.000000e+00  1.024000e+05  1.000000e+00  1.000000e+00
</event>
<event>
     5  9999  1.000000e+00  1.024000e+05  8.493754e-03  6.416823e-02
       11    -1     0     0     0     0  0.0000000000e+00  0.0000000000e+00  5.1200000000e+04  5.1200000000e+04  0.0000000000e+00 0. 9.
      -11    -1     0     0     0     0  0.0000000000e+00  0.0000000000e+00 -5.1200000000e+04  5.1200000000e+04  0.0000000000e+00 0. 9.
       25     2     1     2     0     0  0.0000000000e+00  0.0000000000e+00  0.0000000000e+00  1.0240000000e+05  1.0240000000e+05 0. 9.
       21     1     3     0   101   102 -1.4283119008e+04 -4.7069642513e+04  1.4208492712e+04  5.1200000000e+04  0.0000000000e+00 0. 9.
       21     1     3     0   102   101  1.4283119008e+04  4.7069642513e+04 -1.4208492712e+04  5.1200000000e+04  0.0000000000e+00 0. 9.
#pdf   11  -11  1.000000e+00  1.000000e+00  1.024000e+05  1.000000e+00  1.000000e+00
</event>
<event>
     5  9999  1.000000e+00  1.024000e+05  8.493754e-03  6.416823e-02
       11    -1     0     0     0     0  0.0000000000e+00  0.0000000000e+00  5.1200000000e+04  5.1200000000e+04  0.0000000000e+00 0. 9.
      -11    -1     0     0     0     0  0.0000000000e+00  0.0000000000e+00 -5.1200000000e+04  5.1200000000e+04  0.0000000000e+00 0. 9.
       25     2     1     2     0     0  0.0000000000e+00  0.0000000000e+00  0.0000000000e+00  1.0240000000e+05  1.0240000000e+05 0. 9.
       21     1     3     0   101   102  1.2846482357e+04  4.6654939656e+04 -1.6724966270e+04  5.1200000000e+04  0.0000000000e+00 0. 9.
       21     1     3     0   102   101 -1.2846482357e+04 -4.6654939656e+04  1.6724966270e+04  5.1200000000e+04  0.0000000000e+00 0. 9.
#pdf   11  -11  1.000000e+00  1.000000e+00  1.024000e+05  1.000000e+00  1.000000e+00
</event>
<event>
     5  9999  1.000000e+00  1.024000e+05  8.493754e-03  6.416823e-02
       11    -1     0     0     0     0  0.0000000000e+00  0.0000000000e+00  5.1200000000e+04  5.1200000000e+04  0.0000000000e+00 0. 9.
      -11    -1     0     0     0     0  0.0000000000e+00  0.0000000000e+00 -5.1200000000e+04  5.1200000000e+04  0.0000000000e+00 0. 9.
       25     2     1     2     0     0  0.0000000000e+00  0.0000000000e+00  0.0000000000e+00  1.0240000000e+05  1.0240000000e+05 0. 9.
       21     1     3     0   101   102  1.8166827257e+04 -3.8396363207e+04  2.8585410263e+04  5.1200000000e+04  0.0000000000e+00 0. 9.
       21     1     3     0   102   101 -1.8166827257e+04  3.8396363207e+04 -2.8585410263e+04  5.1200000000e+04  0.0000000000e+00 0. 9.
#pdf   11  -11  1.000000e+00  1.000000e+00  1.024000e+05  1.000000e+00  1.000000e+00
</event>
<event>
     5  9999  1.000000e+00  1.024000e+05  8.493754e-03  6.416823e-02
       11    -1     0     0     0     0  0.0000000000e+00  0.0000000000e+00  5.1200000000e+04  5.1200000000e+04  0.0000000000e+00 0. 9.
      -11    -1     0     0     0     0  0.0000000000e+00  0.0000000000e+00 -5.1200000000e+04  5.1200000000e+04  0.0000000000e+00 0. 9.
       25     2     1     2     0     0  0.0000000000e+00  0.0000000000e+00  0.0000000000e+00  1.0240000000e+05  1.0240000000e+05 0. 9.
       21     1     3     0   101   102 -4.7797060318e+04  1.2007750784e+04 -1.3881460518e+04  5.1200000000e+04  0.0000000000e+00 0. 9.
       21     1     3     0   102   101  4.7797060318e+04 -1.2007750784e+04  1.3881460518e+04  5.1200000000e+04  0.0000000000e+00 0. 9.
#pdf   11  -11  1.000000e+00  1.000000e+00  1.024000e+05  1.000000e+00  1.000000e+00
</event>
<event>
     5  9999  1.000000e+00  1.024000e+05  8.493754e-03  6.416823e-02
       11    -1     0     0     0     0  0.0000000000e+00  0.0000000000e+00  5.1200000000e+04  5.1200000000e+04  0.0000000000e+00 0. 9.
      -11    -1     0     0     0     0  0.0000000000e+00  0.0000000000e+00 -5.1200000000e+04  5.1200000000e+04  0.0000000000e+00 0. 9.
       25     2     1     2     0     0  0.0000000000e+00  0.0000000000e+00  0.0000000000e+00  1.0240000000e+05  1.0240000000e+05 0. 9.
       21     1     3     0   101   102  1.6646717940e+04 -3.0900758020e+04  3.7275594370e+04  5.1200000000e+04  0.0000000000e+00 0. 9.
       21     1     3     0   102   101 -1.6646717940e+04  3.0900758020e+04 -3.7275594370e+04  5.1200000000e+04  0.0000000000e+00 0. 9.
#pdf   11  -11  1.000000e+00  1.000000e+00  1.024000e+05  1.000000e+00  1.000000e+00
</event>
<event>
     5  9999  1.000000e+00  1.024000e+05  8.493754e-03  6.416823e-02
       11    -1     0     0     0     0  0.0000000000e+00  0.0000000000e+00  5.1200000000e+04  5.1200000000e+04  0.0000000000e+00 0. 9.
      -11    -1     0     0     0     0  0.0000000000e+00  0.0000000000e+00 -5.1200000000e+04  5.1200000000e+04  0.0000000000e+00 0. 9.
       25     2     1     2     0     0  0.0000000000e+00  0.0000000000e+00  0.0000000000e+00  1.0240000000e+05  1.0240000000e+05 0. 9.
       21     1     3     0   101   102 -3.3895893532e+04 -3.7990231175e+04 -5.4083950446e+03  5.1200000000e+04  0.0000000000e+00 0. 9.
       21     1     3     0   102   101  3.3895893532e+04  3.7990231175e+04  5.4083950446e+03  5.1200000000e+04  0.0000000000e+00 0. 9.
#pdf   11  -11  1.000000e+00  1.000000e+00  1.024000e+05  1.000000e+00  1.000000e+00
</event>
<event>
     5  9999  1.000000e+00  1.024000e+05  8.493754e-03  6.416823e-02
       11    -1     0     0     0     0  0.0000000000e+00  0.0000000000e+00  5.1200000000e+04  5.1200000000e+04  0.0000000000e+00 0. 9.
      -11    -1     0     0     0     0  0.0000000000e+00  0.0000000000e+00 -5.1200000000e+04  5.1200000000e+04  0.0000000000e+00 0. 9.
       25     2     1     2     0     0  0.0000000000e+00  0.0000000000e+00  0.0000000000e+00  1.0240000000e+05  1.0240000000e+05 0. 9.
       21     1     3     0   101   102 -5.1066737975e+04 -3.5448076497e+03  1.0308304193e+03  5.1200000000e+04  0.0000000000e+00 0. 9.
       21     1     3     0   102   101  5.1066737975e+04  3.5448076497e+03 -1.0308304193e+03  5.1200000000e+04  0.0000000000e+00 0. 9.
#pdf   11  -11  1.000000e+00  1.000000e+00  1.024000e+05  1.000000e+00  1.000000e+00
</event>
<event>
     5  9999  1.000000e+00  1.024000e+05  8.493754e-03  6.416823e-02
       11    -1     0     0     0     0  0.0000000000e+00  0.0000000000e+00  5.1200000000e+04  5.1200000000e+04  0.0000000000e+00 0. 9.
      -11    -1     0     0     0     0  0.0000000000e+00  0.0000000000e+00 -5.1200000000e+04  5.1200000000e+04  0.0000000000e+00 0. 9.
       25     2     1     2     0     0  0.0000000000e+00  0.0000000000e+00  0.0000000000e+00  1.0240000000e+05  1.0240000000e+05 0. 9.
       21     1     3     0   101   102  2.4447437417e+04 -4.4970480469e+04  1.1910877852e+03  5.1200000000e+04  0.0000000000e+00 0. 9.
       21     1     3     0   102   101 -2.4447437417e+04  4.4970480469e+04 -1.1910877852e+03  5.1200000000e+04  0.0000000000e+00 0. 9.
#pdf   11  -11  1.000000e+00  1.000000e+00  1.024000e+05  1.000000e+00  1.000000e+00
</event>
<event>
     5  9999  1.000000e+00  1.024000e+05  8.493754e-03  6.416823e-02
       11    -1     0     0     0     0  0.0000000000e+00  0.0000000000e+00  5.1200000000e+04  5.1200000000e+04  0.0000000000e+00 0. 9.
      -11    -1     0     0     0     0  0.0000000000e+00  0.0000000000e+00 -5.1200000000e+04  5.1200000000e+04  0.0000000000e+00 0. 9.
       25     2     1     2     0     0  0.0000000000e+00  0.0000000000e+00  0.0000000000e+00  1.0240000000e+05  1.0240000000e+05 0. 9.
       21     1     3     0   101   102  4.0269394269e+04 -1.0721145672e+04 -2.9746813623e+04  5.1200000000e+04  0.0000000000e+00 0. 9.
       21     1     3     0   102   101 -4.0269394269e+04  1.0721145672e+04  2.9746813623e+04  5.1200000000e+04  0.0000000000e+00 0. 9.
#pdf   11  -11  1.000000e+00  1.000000e+00  1.024000e+05  1.000000e+00  1.000000e+00
</event>
<event>
     5  9999  1.000000e+00  1.024000e+05  8.493754e-03  6.416823e-02
       11    -1     0     0     0     0  0.0000000000e+00  0.0000000000e+00  5.1200000000e+04  5.1200000000e+04  0.0000000000e+00 0. 9.
      -11    -1     0     0     0     0  0.0000000000e+00  0.0000000000e+00 -5.1200000000e+04  5.1200000000e+04  0.0000000000e+00 0. 9.
       25     2     1     2     0     0  0.0000000000e+00  0.0000000000e+00  0.0000000000e+00  1.0240000000e+05  1.0240000000e+05 0. 9.
       21     1     3     0   101   102  4.7916339975e+04  1.6877893623e+04 -6.3718969118e+03  5.1200000000e+04  0.0000000000e+00 0. 9.
       21     1     3     0   102   101 -4.7916339975e+04 -1.6877893623e+04  6.3718969118e+03  5.1200000000e+04  0.0000000000e+00 0. 9.
#pdf   11  -11  1.000000e+00  1.000000e+00  1.024000e+05  1.000000e+00  1.000000e+00
</event>
<event>
     5  9999  1.000000e+00  1.024000e+05  8.493754e-03  6.416823e-02
       11    -1     0     0     0     0  0.0000000000e+00  0.0000000000e+00  5.1200000000e+04  5.1200000000e+04  0.0000000000e+00 0. 9.
      -11    -1     0     0     0     0  0.0000000000e+00  0.0000000000e+00 -5.1200000000e+04  5.1200000000e+04  0.0000000000e+00 0. 9.
       25     2     1     2     0     0  0.0000000000e+00  0.0000000000e+00  0.0000000000e+00  1.0240000000e+05  1.0240000000e+05 0. 9.
       21     1     3     0   101   102  4.7367864342e+04 -2.0240814215e+03  1.9329472887e+04  5.1200000000e+04  0.0000000000e+00 0. 9.
       21     1     3     0   102   101 -4.7367864342e+04  2.0240814215e+03 -1.9329472887e+04  5.1200000000e+04  0.0000000000e+00 0. 9.
#pdf   11  -11  1.000000e+00  1.000000e+00  1.024000e+05  1.000000e+00  1.000000e+00
</event>
<event>
     5  9999  1.000000e+00  1.024000e+05  8.493754e-03  6.416823e-02
       11    -1     0     0     0     0  0.0000000000e+00  0.0000000000e+00  5.1200000000e+04  5.1200000000e+04  0.0000000000e+00 0. 9.
      -11    -1     0     0     0     0  0.0000000000e+00  0.0000000000e+00 -5.1200000000e+04  5.1200000000e+04  0.0000000000e+00 0. 9.
       25     2     1     2     0     0  0.0000000000e+00  0.0000000000e+00  0.0000000000e+00  1.0240000000e+05  1.0240000000e+05 0. 9.
       21     1     3     0   101   102  4.2562342262e+04  1.9400307441e+04  2.0821025247e+04  5.1200000000e+04  0.0000000000e+00 0. 9.
       21     1     3     0   102   101 -4.2562342262e+04 -1.9400307441e+04 -2.0821025247e+04  5.1200000000e+04  0.0000000000e+00 0. 9.
#pdf   11  -11  1.000000e+00  1.000000e+00  1.024000e+05  1.000000e+00  1.000000e+00
</event>
<event>
     5  9999  1.000000e+00  1.024000e+05  8.493754e-03  6.416823e-02
       11    -1     0     0     0     0  0.0000000000e+00  0.0000000000e+00  5.1200000000e+04  5.1200000000e+04  0.0000000000e+00 0. 9.
      -11    -1     0     0     0     0  0.0000000000e+00  0.0000000000e+00 -5.1200000000e+04  5.1200000000e+04  0.0000000000e+00 0. 9.
       25     2     1     2     0     0  0.0000000000e+00  0.0000000000e+00  0.0000000000e+00  1.0240000000e+05  1.0240000000e+05 0. 9.
       21     1     3     0   101   102  1.3405996119e+04 -4.1267638136e+04 -2.7179060152e+04  5.1200000000e+04  0.0000000000e+00 0. 9.
       21     1     3     0   102   101 -1.3405996119e+04  4.1267638136e+04  2.7179060152e+04  5.1200000000e+04  0.0000000000e+00 0. 9.
#pdf   11  -11  1.000000e+00  1.000000e+00  1.024000e+05  1.000000e+00  1.000000e+00
</event>
<event>
     5  9999  1.000000e+00  1.024000e+05  8.493754e-03  6.416823e-02
       11    -1     0     0     0     0  0.0000000000e+00  0.0000000000e+00  5.1200000000e+04  5.1200000000e+04  0.0000000000e+00 0. 9.
      -11    -1     0     0     0     0  0.0000000000e+00  0.0000000000e+00 -5.1200000000e+04  5.1200000000e+04  0.0000000000e+00 0. 9.
       25     2     1     2     0     0  0.0000000000e+00  0.0000000000e+00  0.0000000000e+00  1.0240000000e+05  1.0240000000e+05 0. 9.
       21     1     3     0   101   102  1.4903910025e+04 -2.0341198460e+04  4.4559500796e+04  5.1200000000e+04  0.0000000000e+00 0. 9.
       21     1     3     0   102   101 -1.4903910025e+04  2.0341198460e+04 -4.4559500796e+04  5.1200000000e+04  0.0000000000e+00 0. 9.
#pdf   11  -11  1.000000e+00  1.000000e+00  1.024000e+05  1.000000e+00  1.000000e+00
</event>
<event>
     5  9999  1.000000e+00  1.024000e+05  8.493754e-03  6.416823e-02
       11    -1     0     0     0     0  0.0000000000e+00  0.0000000000e+00  5.1200000000e+04  5.1200000000e+04  0.0000000000e+00 0. 9.
      -11    -1     0     0     0     0  0.0000000000e+00  0.0000000000e+00 -5.1200000000e+04  5.1200000000e+04  0.0000000000e+00 0. 9.
       25     2     1     2     0     0  0.0000000000e+00  0.0000000000e+00  0.0000000000e+00  1.0240000000e+05  1.0240000000e+05 0. 9.
       21     1     3     0   101   102 -1.6543456254e+04 -3.8841468836e+04 -2.8967125398e+04  5.1200000000e+04  0.0000000000e+00 0. 9.
       21     1     3     0   102   101  1.6543456254e+04  3.8841468836e+04  2.8967125398e+04  5.1200000000e+04  0.0000000000e+00 0. 9.
#pdf   11  -11  1.000000e+00  1.000000e+00  1.024000e+05  1.000000e+00  1.000000e+00
</event>
<event>
     5  9999  1.000000e+00  1.024000e+05  8.493754e-03  6.416823e-02
       11    -1     0     0     0     0  0.0000000000e+00  0.0000000000e+00  5.1200000000e+04  5.1200000000e+04  0.0000000000e+00 0. 9.
      -11    -1     0     0     0     0  0.0000000000e+00  0.0000000000e+00 -5.1200000000e+04  5.1200000000e+04  0.0000000000e+00 0. 9.
       25     2     1     2     0     0  0.0000000000e+00  0.0000000000e+00  0.0000000000e+00  1.0240000000e+05  1.0240000000e+05 0. 9.
       21     1     3     0   101   102 -3.8878736213e+04 -2.8835075024e+04 -1.6685991695e+04  5.1200000000e+04  0.0000000000e+00 0. 9.
       21     1     3     0   102   101  3.8878736213e+04  2.8835075024e+04  1.6685991695e+04  5.1200000000e+04  0.0000000000e+00 0. 9.
#pdf   11  -11  1.000000e+00  1.000000e+00  1.024000e+05  1.000000e+00  1.000000e+00
</event>
<event>
     5  9999  1.000000e+00  1.024000e+05  8.493754e-03  6.416823e-02
       11    -1     0     0     0     0  0.0000000000e+00  0.0000000000e+00  5.1200000000e+04  5.1200000000e+04  0.0000000000e+00 0. 9.
      -11    -1     0     0     0     0  0.0000000000e+00  0.0000000000e+00 -5.1200000000e+04  5.1200000000e+04  0.0000000000e+00 0. 9.
       25     2     1     2     0     0  0.0000000000e+00  0.0000000000e+00  0.0000000000e+00  1.0240000000e+05  1.0240000000e+05 0. 9.
       21     1     3     0   101   102 -4.8927257054e+04  3.4116595415e+03  1.4694355934e+04  5.1200000000e+04  0.0000000000e+00 0. 9.
       21     1     3     0   102   101  4.8927257054e+04 -3.4116595415e+03 -1.4694355934e+04  5.1200000000e+04  0.0000000000e+00 0. 9.
#pdf   11  -11  1.000000e+00  1.000000e+00  1.024000e+05  1.000000e+00  1.000000e+00
</event>
<event>
     5  9999  1.000000e+00  1.024000e+05  8.493754e-03  6.416823e-02
       11    -1     0     0     0     0  0.0000000000e+00  0.0000000000e+00  5.1200000000e+04  5.1200000000e+04  0.0000000000e+00 0. 9.
      -11    -1     0     0     0     0  0.0000000000e+00  0.0000000000e+00 -5.1200000000e+04  5.1200000000e+04  0.0000000000e+00 0. 9.
       25     2     1     2     0     0  0.0000000000e+00  0.0000000000e+00  0.0000000000e+00  1.0240000000e+05  1.0240000000e+05 0. 9.
       21     1     3     0   101   102  4.2428626779e+04  3.7049491444e+03 -2.8416984032e+04  5.1200000000e+04  0.0000000000e+00 0. 9.
       21     1     3     0   102   101 -4.2428626779e+04 -3.7049491444e+03  2.8416984032e+04  5.1200000000e+04  0.0000000000e+00 0. 9.
#pdf   11  -11  1.000000e+00  1.000000e+00  1.024000e+05  1.000000e+00  1.000000e+00
</event>
<event>
     5  9999  1.000000e+00  1.024000e+05  8.493754e-03  6.416823e-02
       11    -1     0     0     0     0  0.0000000000e+00  0.0000000000e+00  5.1200000000e+04  5.1200000000e+04  0.0000000000e+00 0. 9.
      -11    -1     0     0     0     0  0.0000000000e+00  0.0000000000e+00 -5.1200000000e+04  5.1200000000e+04  0.0000000000e+00 0. 9.
       25     2     1     2     0     0  0.0000000000e+00  0.0000000000e+00  0.0000000000e+00  1.0240000000e+05  1.0240000000e+05 0. 9.
       21     1     3     0   101   102  4.9216697798e+04  1.0290664558e+04 -9.6570637776e+03  5.1200000000e+04  0.0000000000e+00 0. 9.
       21     1     3     0   102   101 -4.9216697798e+04 -1.0290664558e+04  9.6570637776e+03  5.1200000000e+04  0.0000000000e+00 0. 9.
#pdf   11  -11  1.000000e+00  1.000000e+00  1.024000e+05  1.000000e+00  1.000000e+00
</event>
<event>
     5  9999  1.000000e+00  1.024000e+05  8.493754e-03  6.416823e-02
       11    -1     0     0     0     0  0.0000000000e+00  0.0000000000e+00  5.1200000000e+04  5.1200000000e+04  0.0000000000e+00 0. 9.
      -11    -1     0     0     0     0  0.0000000000e+00  0.0000000000e+00 -5.1200000000e+04  5.1200000000e+04  0.0000000000e+00 0. 9.
       25     2     1     2     0     0  0.0000000000e+00  0.0000000000e+00  0.0000000000e+00  1.0240000000e+05  1.0240000000e+05 0. 9.
       21     1     3     0   101   102  1.4402746167e+04 -4.3615986048e+04 -2.2619607952e+04  5.1200000000e+04  0.0000000000e+00 0. 9.
       21     1     3     0   102   101 -1.4402746167e+04  4.3615986048e+04  2.2619607952e+04  5.1200000000e+04  0.0000000000e+00 0. 9.
#pdf   11  -11  1.000000e+00  1.000000e+00  1.024000e+05  1.000000e+00  1.000000e+00
</event>
<event>
     5  9999  1.000000e+00  1.024000e+05  8.493754e-03  6.416823e-02
       11    -1     0     0     0     0  0.0000000000e+00  0.0000000000e+00  5.1200000000e+04  5.1200000000e+04  0.0000000000e+00 0. 9.
      -11    -1     0     0     0     0  0.0000000000e+00  0.0000000000e+00 -5.1200000000e+04  5.1200000000e+04  0.0000000000e+00 0. 9.
       25     2     1     2     0     0  0.0000000000e+00  0.0000000000e+00  0.0000000000e+00  1.0240000000e+05  1.0240000000e+05 0. 9.
       21     1     3     0   101   102  3.9015165659e+04  3.1354649443e+04 -1.0776957219e+04  5.1200000000e+04  0.0000000000e+00 0. 9.
       21     1     3     0   102   101 -3.9015165659e+04 -3.1354649443e+04  1.0776957219e+04  5.1200000000e+04  0.0000000000e+00 0. 9.
#pdf   11  -11  1.000000e+00  1.000000e+00  1.024000e+05  1.000000e+00  1.000000e+00
</event>
<event>
     5  9999  1.000000e+00  1.024000e+05  8.493754e-03  6.416823e-02
       11    -1     0     0     0     0  0.0000000000e+00  0.0000000000e+00  5.1200000000e+04  5.1200000000e+04  0.0000000000e+00 0. 9.
      -11    -1     0     0     0     0  0.0000000000e+00  0.0000000000e+00 -5.1200000000e+04  5.1200000000e+04  0.0000000000e+00 0. 9.
       25     2     1     2     0     0  0.0000000000e+00  0.0000000000e+00  0.0000000000e+00  1.0240000000e+05  1.0240000000e+05 0. 9.
       21     1     3     0   101   102  4.0952276513e+03  1.5092514924e+04  4.8753308644e+04  5.1200000000e+04  0.0000000000e+00 0. 9.
       21     1     3     0   102   101 -4.0952276513e+03 -1.5092514924e+04 -4.8753308644e+04  5.1200000000e+04  0.0000000000e+00 0. 9.
#pdf   11  -11  1.000000e+00  1.000000e+00  1.024000e+05  1.000000e+00  1.000000e+00
</event>
<event>
     5  9999  1.000000e+00  1.024000e+05  8.493754e-03  6.416823e-02
       11    -1     0     0     0     0  0.0000000000e+00  0.0000000000e+00  5.1200000000e+04  5.1200000000e+04  0.0000000000e+00 0. 9.
      -11    -1     0     0     0     0  0.0000000000e+00  0.0000000000e+00 -5.1200000000e+04  5.1200000000e+04  0.0000000000e+00 0. 9.
       25     2     1     2     0     0  0.0000000000e+00  0.0000000000e+00  0.0000000000e+00  1.0240000000e+05  1.0240000000e+05 0. 9.
       21     1     3     0   101   102 -3.7230489678e+04  3.3346998340e+04 -1.1104428847e+04  5.1200000000e+04  0.0000000000e+00 0. 9.
       21     1     3     0   102   101  3.7230489678e+04 -3.3346998340e+04  1.1104428847e+04  5.1200000000e+04  0.0000000000e+00 0. 9.
#pdf   11  -11  1.000000e+00  1.000000e+00  1.024000e+05  1.000000e+00  1.000000e+00
</event>
<event>
     5  9999  1.000000e+00  1.024000e+05  8.493754e-03  6.416823e-02
       11    -1     0     0     0     0  0.0000000000e+00  0.0000000000e+00  5.1200000000e+04  5.1200000000e+04  0.0000000000e+00 0. 9.
      -11    -1     0     0     0     0  0.0000000000e+00  0.0000000000e+00 -5.1200000000e+04  5.1200000000e+04  0.0000000000e+00 0. 9.
       25     2     1     2     0     0  0.0000000000e+00  0.0000000000e+00  0.0000000000e+00  1.0240000000e+05  1.0240000000e+05 0. 9.
       21     1     3     0   101   102  2.3781240431e+04 -4.3962172154e+04 -1.1100451479e+04  5.1200000000e+04  0.0000000000e+00 0. 9.
       21     1     3     0   102   101 -2.3781240431e+04  4.3962172154e+04  1.1100451479e+04  5.1200000000e+04  0.0000000000e+00 0. 9.
#pdf   11  -11  1.000000e+00  1.000000e+00  1.024000e+05  1.000000e+00  1.000000e+00
</event>
<event>
     5  9999  1.000000e+00  1.024000e+05  8.493754e-03  6.416823e-02
       11    -1     0     0     0     0  0.0000000000e+00  0.0000000000e+00  5.1200000000e+04  5.1200000000e+04  0.0000000000e+00 0. 9.
      -11    -1     0     0     0     0  0.0000000000e+00  0.0000000000e+00 -5.1200000000e+04  5.1200000000e+04  0.0000000000e+00 0. 9.
       25     2     1     2     0     0  0.0000000000e+00  0.0000000000e+00  0.0000000000e+00  1.0240000000e+05  1.0240000000e+05 0. 9.
       21     1     3     0   101   102 -1.0675827398e+01 -3.9982314818e+04 -3.1982094800e+04  5.1200000000e+04  0.0000000000e+00 0. 9.
       21     1     3     0   102   101  1.0675827398e+01  3.9982314818e+04  3.1982094800e+04  5.1200000000e+04  0.0000000000e+00 0. 9.
#pdf   11  -11  1.000000e+00  1.000000e+00  1.024000e+05  1.000000e+00  1.000000e+00
</event>
<event>
     5  9999  1.000000e+00  1.024000e+05  8.493754e-03  6.416823e-02
       11    -1     0     0     0     0  0.0000000000e+00  0.0000000000e+00  5.1200000000e+04  5.1200000000e+04  0.0000000000e+00 0. 9.
      -11    -1     0     0     0     0  0.0000000000e+00  0.0000000000e+00 -5.1200000000e+04  5.1200000000e+04  0.0000000000e+00 0. 9.
       25     2     1     2     0     0  0.0000000000e+00  0.0000000000e+00  0.0000000000e+00  1.0240000000e+05  1.0240000000e+05 0. 9.
       21     1     3     0   101   102 -2.8846198107e+04 -3.8937178753e+04 -1.6529759996e+04  5.1200000000e+04  0.0000000000e+00 0. 9.
       21     1     3     0   102   101  2.8846198107e+04  3.8937178753e+04  1.6529759996e+04  5.1200000000e+04  0.0000000000e+00 0. 9.
#pdf   11  -11  1.000000e+00  1.000000e+00  1.024000e+05  1.000000e+00  1.000000e+00
</event>
<event>
     5  9999  1.000000e+00  1.024000e+05  8.493754e-03  6.416823e-02
       11    -1     0     0     0     0  0.0000000000e+00  0.0000000000e+00  5.1200000000e+04  5.1200000000e+04  0.0000000000e+00 0. 9.
      -11    -1     0     0     0     0  0.0000000000e+00  0.0000000000e+00 -5.1200000000e+04  5.1200000000e+04  0.0000000000e+00 0. 9.
       25     2     1     2     0     0  0.0000000000e+00  0.0000000000e+00  0.0000000000e+00  1.0240000000e+05  1.0240000000e+05 0. 9.
       21     1     3     0   101   102  3.7361977359e+04  3.2230952668e+04  1.3663394086e+04  5.1200000000e+04  0.0000000000e+00 0. 9.
       21     1     3     0   102   101 -3.7361977359e+04 -3.2230952668e+04 -1.3663394086e+04  5.1200000000e+04  0.0000000000e+00 0. 9.
#pdf   11  -11  1.000000e+00  1.000000e+00  1.024000e+05  1.000000e+00  1.000000e+00
</event>
<event>
     5  9999  1.000000e+00  1.024000e+05  8.493754e-03  6.416823e-02
       11    -1     0     0     0     0  0.0000000000e+00  0.0000000000e+00  5.1200000000e+04  5.1200000000e+04  0.0000000000e+00 0. 9.
      -11    -1     0     0     0     0  0.0000000000e+00  0.0000000000e+00 -5.1200000000e+04  5.1200000000e+04  0.0000000000e+00 0. 9.
       25     2     1     2     0     0  0.0000000000e+00  0.0000000000e+00  0.0000000000e+00  1.0240000000e+05  1.0240000000e+05 0. 9.
       21     1     3     0   101   102  3.0408493747e+04  4.1009823109e+04 -3.8675465956e+03  5.1200000000e+04  0.0000000000e+00 0. 9.
       21     1     3     0   102   101 -3.0408493747e+04 -4.1009823109e+04  3.8675465956e+03  5.1200000000e+04  0.0000000000e+00 0. 9.
#pdf   11  -11  1.000000e+00  1.000000e+00  1.024000e+05  1.000000e+00  1.000000e+00
</event>
<event>
     5  9999  1.000000e+00  1.024000e+05  8.493754e-03  6.416823e-02
       11    -1     0     0     0     0  0.0000000000e+00  0.0000000000e+00  5.1200000000e+04  5.1200000000e+04  0.0000000000e+00 0. 9.
      -11    -1     0     0     0     0  0.0000000000e+00  0.0000000000e+00 -5.1200000000e+04  5.1200000000e+04  0.0000000000e+00 0. 9.
       25     2     1     2     0     0  0.0000000000e+00  0.0000000000e+00  0.0000000000e+00  1.0240000000e+05  1.0240000000e+05 0. 9.
       21     1     3     0   101   102 -7.3982476951e+03 -3.9429683730e+04 -3.1812041305e+04  5.1200000000e+04  0.0000000000e+00 0. 9.
       21     1     3     0   102   101  7.3982476951e+03  3.9429683730e+04  3.1812041305e+04  5.1200000000e+04  0.0000000000e+00 0. 9.
#pdf   11  -11  1.000000e+00  1.000000e+00  1.024000e+05  1.000000e+00  1.000000e+00
</event>
<event>
     5  9999  1.000000e+00  1.024000e+05  8.493754e-03  6.416823e-02
       11    -1     0     0     0     0  0.0000000000e+00  0.0000000000e+00  5.1200000000e+04  5.1200000000e+04  0.0000000000e+00 0. 9.
      -11    -1     0     0     0     0  0.0000000000e+00  0.0000000000e+00 -5.1200000000e+04  5.1200000000e+04  0.0000000000e+00 0. 9.
       25     2     1     2     0     0  0.0000000000e+00  0.0000000000e+00  0.0000000000e+00  1.0240000000e+05  1.0240000000e+05 0. 9.
       21     1     3     0   101   102  6.9390463944e+03 -2.7715775329e+04 -4.2486767741e+04  5.1200000000e+04  0.0000000000e+00 0. 9.
       21     1     3     0   102   101 -6.9390463944e+03  2.7715775329e+04  4.2486767741e+04  5.1200000000e+04  0.0000000000e+00 0. 9.
#pdf   11  -11  1.000000e+00  1.000000e+00  1.024000e+05  1.000000e+00  1.000000e+00
</event>
<event>
     5  9999  1.000000e+00  1.024000e+05  8.493754e-03  6.416823e-02
       11    -1     0     0     0     0  0.0000000000e+00  0.0000000000e+00  5.1200000000e+04  5.1200000000e+04  0.0000000000e+00 0. 9.
      -11    -1     0     0     0     0  0.0000000000e+00  0.0000000000e+00 -5.1200000000e+04  5.1200000000e+04  0.0000000000e+00 0. 9.
       25     2     1     2     0     0  0.0000000000e+00  0.0000000000e+00  0.0000000000e+00  1.0240000000e+05  1.0240000000e+05 0. 9.
       21     1     3     0   101   102  4.5948203986e+04  2.0456355869e+04  9.5781028922e+03  5.1200000000e+04  0.0000000000e+00 0. 9.
       21     1     3     0   102   101 -4.5948203986e+04 -2.0456355869e+04 -9.5781028922e+03  5.1200000000e+04  0.0000000000e+00 0. 9.
#pdf   11  -11  1.000000e+00  1.000000e+00  1.024000e+05  1.000000e+00  1.000000e+00
</event>
<event>
     5  9999  1.000000e+00  1.024000e+05  8.493754e-03  6.416823e-02
       11    -1     0     0     0     0  0.0000000000e+00  0.0000000000e+00  5.1200000000e+04  5.1200000000e+04  0.0000000000e+00 0. 9.
      -11    -1     0     0     0     0  0.0000000000e+00  0.0000000000e+00 -5.1200000000e+04  5.1200000000e+04  0.0000000000e+00 0. 9.
       25     2     1     2     0     0  0.0000000000e+00  0.0000000000e+00  0.0000000000e+00  1.0240000000e+05  1.0240000000e+05 0. 9.
       21     1     3     0   101   102  1.4041623633e+04 -4.7623571686e+04  1.2500729004e+04  5.1200000000e+04  0.0000000000e+00 0. 9.
       21     1     3     0   102   101 -1.4041623633e+04  4.7623571686e+04 -1.2500729004e+04  5.1200000000e+04  0.0000000000e+00 0. 9.
#pdf   11  -11  1.000000e+00  1.000000e+00  1.024000e+05  1.000000e+00  1.000000e+00
</event>
<event>
     5  9999  1.000000e+00  1.024000e+05  8.493754e-03  6.416823e-02
       11    -1     0     0     0     0  0.0000000000e+00  0.0000000000e+00  5.1200000000e+04  5.1200000000e+04  0.0000000000e+00 0. 9.
      -11    -1     0     0     0     0  0.0000000000e+00  0.0000000000e+00 -5.1200000000e+04  5.1200000000e+04  0.0000000000e+00 0. 9.
       25     2     1     2     0     0  0.0000000000e+00  0.0000000000e+00  0.0000000000e+00  1.0240000000e+05  1.0240000000e+05 0. 9.
       21     1     3     0   101   102  3.3195436717e+04 -3.3126090573e+04 -2.0546656773e+04  5.1200000000e+04  0.0000000000e+00 0. 9.
       21     1     3     0   102   101 -3.3195436717e+04  3.3126090573e+04  2.0546656773e+04  5.1200000000e+04  0.0000000000e+00 0. 9.
#pdf   11  -11  1.000000e+00  1.000000e+00  1.024000e+05  1.000000e+00  1.000000e+00
</event>
<event>
     5  9999  1.000000e+00  1.024000e+05  8.493754e-03  6.416823e-02
       11    -1     0     0     0     0  0.0000000000e+00  0.0000000000e+00  5.1200000000e+04  5.1200000000e+04  0.0000000000e+00 0. 9.
      -11    -1     0     0     0     0  0.0000000000e+00  0.0000000000e+00 -5.1200000000e+04  5.1200000000e+04  0.0000000000e+00 0. 9.
       25     2     1     2     0     0  0.0000000000e+00  0.0000000000e+00  0.0000000000e+00  1.0240000000e+05  1.0240000000e+05 0. 9.
       21     1     3     0   101   102 -4.3297917969e+04  1.1473375341e+04 -2.4801047514e+04  5.1200000000e+04  0.0000000000e+00 0. 9.
       21     1     3     0   102   101  4.3297917969e+04 -1.1473375341e+04  2.4801047514e+04  5.1200000000e+04  0.0000000000e+00 0. 9.
#pdf   11  -11  1.000000e+00  1.000000e+00  1.024000e+05  1.000000e+00  1.000000e+00
</event>
<event>
     5  9999  1.000000e+00  1.024000e+05  8.493754e-03  6.416823e-02
       11    -1     0     0     0     0  0.0000000000e+00  0.0000000000e+00  5.1200000000e+04  5.1200000000e+04  0.0000000000e+00 0. 9.
      -11    -1     0     0     0     0  0.0000000000e+00  0.0000000000e+00 -5.1200000000e+04  5.1200000000e+04  0.0000000000e+00 0. 9.
       25     2     1     2     0     0  0.0000000000e+00  0.0000000000e+00  0.0000000000e+00  1.0240000000e+05  1.0240000000e+05 0. 9.
       21     1     3     0   101   102 -1.3921665639e+04  1.1032247240e+04  4.8019961960e+04  5.1200000000e+04  0.0000000000e+00 0. 9.
       21     1     3     0   102   101  1.3921665639e+04 -1.1032247240e+04 -4.8019961960e+04  5.1200000000e+04  0.0000000000e+00 0. 9.
#pdf   11  -11  1.000000e+00  1.000000e+00  1.024000e+05  1.000000e+00  1.000000e+00
</event>
<event>
     5  9999  1.000000e+00  1.024000e+05  8.493754e-03  6.416823e-02
       11    -1     0     0     0     0  0.0000000000e+00  0.0000000000e+00  5.1200000000e+04  5.1200000000e+04  0.0000000000e+00 0. 9.
      -11    -1     0     0     0     0  0.0000000000e+00  0.0000000000e+00 -5.1200000000e+04  5.1200000000e+04  0.0000000000e+00 0. 9.
       25     2     1     2     0     0  0.0000000000e+00  0.0000000000e+00  0.0000000000e+00  1.0240000000e+05  1.0240000000e+05 0. 9.
       21     1     3     0   101   102  3.9821285743e+03  4.3034497212e+04  2.7452043672e+04  5.1200000000e+04  0.0000000000e+00 0. 9.
       21     1     3     0   102   101 -3.9821285743e+03 -4.3034497212e+04 -2.7452043672e+04  5.1200000000e+04  0.0000000000e+00 0. 9.
#pdf   11  -11  1.000000e+00  1.000000e+00  1.024000e+05  1.000000e+00  1.000000e+00
</event>
<event>
     5  9999  1.000000e+00  1.024000e+05  8.493754e-03  6.416823e-02
       11    -1     0     0     0     0  0.0000000000e+00  0.0000000000e+00  5.1200000000e+04  5.1200000000e+04  0.0000000000e+00 0. 9.
      -11    -1     0     0     0     0  0.0000000000e+00  0.0000000000e+00 -5.1200000000e+04  5.1200000000e+04  0.0000000000e+00 0. 9.
       25     2     1     2     0     0  0.0000000000e+00  0.0000000000e+00  0.0000000000e+00  1.0240000000e+05  1.0240000000e+05 0. 9.
       21     1     3     0   101   102  3.0312778514e+03 -2.2548935098e+04 -4.5867165604e+04  5.1200000000e+04  0.0000000000e+00 0. 9.
       21     1     3     0   102   101 -3.0312778514e+03  2.2548935098e+04  4.5867165604e+04  5.1200000000e+04  0.0000000000e+00 0. 9.
#pdf   11  -11  1.000000e+00  1.000000e+00  1.024000e+05  1.000000e+00  1.000000e+00
</event>
<event>
     5  9999  1.000000e+00  1.024000e+05  8.493754e-03  6.416823e-02
       11    -1     0     0     0     0  0.0000000000e+00  0.0000000000e+00  5.1200000000e+04  5.1200000000e+04  0.0000000000e+00 0. 9.
      -11    -1     0     0     0     0  0.0000000000e+00  0.0000000000e+00 -5.1200000000e+04  5.1200000000e+04  0.0000000000e+00 0. 9.
       25     2     1     2     0     0  0.0000000000e+00  0.0000000000e+00  0.0000000000e+00  1.0240000000e+05  1.0240000000e+05 0. 9.
       21     1     3     0   101   102  2.3634121661e+04  2.5609982281e+04  3.7509960023e+04  5.1200000000e+04  0.0000000000e+00 0. 9.
       21     1     3     0   102   101 -2.3634121661e+04 -2.5609982281e+04 -3.7509960023e+04  5.1200000000e+04  0.0000000000e+00 0. 9.
#pdf   11  -11  1.000000e+00  1.000000e+00  1.024000e+05  1.000000e+00  1.000000e+00
</event>
<event>
     5  9999  1.000000e+00  1.024000e+05  8.493754e-03  6.416823e-02
       11    -1     0     0     0     0  0.0000000000e+00  0.0000000000e+00  5.1200000000e+04  5.1200000000e+04  0.0000000000e+00 0. 9.
      -11    -1     0     0     0     0  0.0000000000e+00  0.0000000000e+00 -5.1200000000e+04  5.1200000000e+04  0.0000000000e+00 0. 9.
       25     2     1     2     0     0  0.0000000000e+00  0.0000000000e+00  0.0000000000e+00  1.0240000000e+05  1.0240000000e+05 0. 9.
       21     1     3     0   101   102 -9.8255932294e+03  4.9988718046e+04  5.1015473951e+03  5.1200000000e+04  0.0000000000e+00 0. 9.
       21     1     3     0   102   101  9.8255932294e+03 -4.9988718046e+04 -5.1015473951e+03  5.1200000000e+04  0.0000000000e+00 0. 9.
#pdf   11  -11  1.000000e+00  1.000000e+00  1.024000e+05  1.000000e+00  1.000000e+00
</event>
<event>
     5  9999  1.000000e+00  1.024000e+05  8.493754e-03  6.416823e-02
       11    -1     0     0     0     0  0.0000000000e+00  0.0000000000e+00  5.1200000000e+04  5.1200000000e+04  0.0000000000e+00 0. 9.
      -11    -1     0     0     0     0  0.0000000000e+00  0.0000000000e+00 -5.1200000000e+04  5.1200000000e+04  0.0000000000e+00 0. 9.
       25     2     1     2     0     0  0.0000000000e+00  0.0000000000e+00  0.0000000000e+00  1.0240000000e+05  1.0240000000e+05 0. 9.
       21     1     3     0   101   102 -5.5237937584e+03  5.0882584523e+04  1.3748799104e+03  5.1200000000e+04  0.0000000000e+00 0. 9.
       21     1     3     0   102   101  5.5237937584e+03 -5.0882584523e+04 -1.3748799104e+03  5.1200000000e+04  0.0000000000e+00 0. 9.
#pdf   11  -11  1.000000e+00  1.000000e+00  1.024000e+05  1.000000e+00  1.000000e+00
</event>
<event>
     5  9999  1.000000e+00  1.024000e+05  8.493754e-03  6.416823e-02
       11    -1     0     0     0     0  0.0000000000e+00  0.0000000000e+00  5.1200000000e+04  5.1200000000e+04  0.0000000000e+00 0. 9.
      -11    -1     0     0     0     0  0.0000000000e+00  0.0000000000e+00 -5.1200000000e+04  5.1200000000e+04  0.0000000000e+00 0. 9.
       25     2     1     2     0     0  0.0000000000e+00  0.0000000000e+00  0.0000000000e+00  1.0240000000e+05  1.0240000000e+05 0. 9.
       21     1     3     0   101   102 -2.1674484502e+04 -4.5095554338e+04 -1.0864975862e+04  5.1200000000e+04  0.0000000000e+00 0. 9.
       21     1     3     0   102   101  2.1674484502e+04  4.5095554338e+04  1.0864975862e+04  5.1200000000e+04  0.0000000000e+00 0. 9.
#pdf   11  -11  1.000000e+00  1.000000e+00  1.024000e+05  1.000000e+00  1.000000e+00
</event>
<event>
     5  9999  1.000000e+00  1.024000e+05  8.493754e-03  6.416823e-02
       11    -1     0     0     0     0  0.0000000000e+00  0.0000000000e+00  5.1200000000e+04  5.1200000000e+04  0.0000000000e+00 0. 9.
      -11    -1     0     0     0     0  0.0000000000e+00  0.0000000000e+00 -5.1200000000e+04  5.1200000000e+04  0.0000000000e+00 0. 9.
       25     2     1     2     0     0  0.0000000000e+00  0.0000000000e+00  0.0000000000e+00  1.0240000000e+05  1.0240000000e+05 0. 9.
       21     1     3     0   101   102  3.9773761523e+04  1.1448104885e+04  3.0140152436e+04  5.1200000000e+04  0.0000000000e+00 0. 9.
       21     1     3     0   102   101 -3.9773761523e+04 -1.1448104885e+04 -3.0140152436e+04  5.1200000000e+04  0.0000000000e+00 0. 9.
#pdf   11  -11  1.000000e+00  1.000000e+00  1.024000e+05  1.000000e+00  1.000000e+00
</event>
<event>
     5  9999  1.000000e+00  1.024000e+05  8.493754e-03  6.416823e-02
       11    -1     0     0     0     0  0.0000000000e+00  0.0000000000e+00  5.1200000000e+04  5.1200000000e+04  0.0000000000e+00 0. 9.
      -11    -1     0     0     0     0  0.0000000000e+00  0.0000000000e+00 -5.1200000000e+04  5.1200000000e+04  0.0000000000e+00 0. 9.
       25     2     1     2     0     0  0.0000000000e+00  0.0000000000e+00  0.0000000000e+00  1.0240000000e+05  1.0240000000e+05 0. 9.
       21     1     3     0   101   102  3.0089824573e+03  5.0166974201e+03  5.0864710474e+04  5.1200000000e+04  0.0000000000e+00 0. 9.
       21     1     3     0   102   101 -3.0089824573e+03 -5.0166974201e+03 -5.0864710474e+04  5.1200000000e+04  0.0000000000e+00 0. 9.
#pdf   11  -11  1.000000e+00  1.000000e+00  1.024000e+05  1.000000e+00  1.000000e+00
</event>
</LesHouchesEvents>
