<LesHouchesEvents version="1.0">
<!--
  File written by Pythia8::LHAup on 06 Jun 2015 at 17:13:50
-->
<init>
  11  -11  1.000000e+02  1.000000e+02  0  0  0  0  3  1
  2.812264e-09  0.000000e+00  1.000000e+00   9999
</init>
<event>
     5  9999  1.000000e+00  2.000000e+02  7.887732e-03  1.158210e-01
       11    -1     0     0     0     0  0.0000000000e+00  0.0000000000e+00  1.0000000000e+02  1.0000000000e+02  0.0000000000e+00 0. 9.
      -11    -1     0     0     0     0  0.0000000000e+00  0.0000000000e+00 -1.0000000000e+02  1.0000000000e+02  0.0000000000e+00 0. 9.
       25     2     1     2     0     0  0.0000000000e+00  0.0000000000e+00  0.0000000000e+00  2.0000000000e+02  2.0000000000e+02 0. 9.
       21     1     3     0   101   102 -1.5952749952e+01 -8.3867885402e+01  5.2073866451e+01  1.0000000000e+02  0.0000000000e+00 0. 9.
       21     1     3     0   102   101  1.5952749952e+01  8.3867885402e+01 -5.2073866451e+01  1.0000000000e+02  0.0000000000e+00 0. 9.
#pdf   11  -11  1.000000e+00  1.000000e+00  2.000000e+02  1.000000e+00  1.000000e+00
</event>
<event>
     5  9999  1.000000e+00  2.000000e+02  7.887732e-03  1.158210e-01
       11    -1     0     0     0     0  0.0000000000e+00  0.0000000000e+00  1.0000000000e+02  1.0000000000e+02  0.0000000000e+00 0. 9.
      -11    -1     0     0     0     0  0.0000000000e+00  0.0000000000e+00 -1.0000000000e+02  1.0000000000e+02  0.0000000000e+00 0. 9.
       25     2     1     2     0     0  0.0000000000e+00  0.0000000000e+00  0.0000000000e+00  2.0000000000e+02  2.0000000000e+02 0. 9.
       21     1     3     0   101   102  4.5659287465e+01  6.9810970896e+00  8.8693256517e+01  1.0000000000e+02  0.0000000000e+00 0. 9.
       21     1     3     0   102   101 -4.5659287465e+01 -6.9810970896e+00 -8.8693256517e+01  1.0000000000e+02  0.0000000000e+00 0. 9.
#pdf   11  -11  1.000000e+00  1.000000e+00  2.000000e+02  1.000000e+00  1.000000e+00
</event>
<event>
     5  9999  1.000000e+00  2.000000e+02  7.887732e-03  1.158210e-01
       11    -1     0     0     0     0  0.0000000000e+00  0.0000000000e+00  1.0000000000e+02  1.0000000000e+02  0.0000000000e+00 0. 9.
      -11    -1     0     0     0     0  0.0000000000e+00  0.0000000000e+00 -1.0000000000e+02  1.0000000000e+02  0.0000000000e+00 0. 9.
       25     2     1     2     0     0  0.0000000000e+00  0.0000000000e+00  0.0000000000e+00  2.0000000000e+02  2.0000000000e+02 0. 9.
       21     1     3     0   101   102 -9.2801645860e+01  3.2696942196e+01  1.7853977056e+01  1.0000000000e+02  0.0000000000e+00 0. 9.
       21     1     3     0   102   101  9.2801645860e+01 -3.2696942196e+01 -1.7853977056e+01  1.0000000000e+02  0.0000000000e+00 0. 9.
#pdf   11  -11  1.000000e+00  1.000000e+00  2.000000e+02  1.000000e+00  1.000000e+00
</event>
<event>
     5  9999  1.000000e+00  2.000000e+02  7.887732e-03  1.158210e-01
       11    -1     0     0     0     0  0.0000000000e+00  0.0000000000e+00  1.0000000000e+02  1.0000000000e+02  0.0000000000e+00 0. 9.
      -11    -1     0     0     0     0  0.0000000000e+00  0.0000000000e+00 -1.0000000000e+02  1.0000000000e+02  0.0000000000e+00 0. 9.
       25     2     1     2     0     0  0.0000000000e+00  0.0000000000e+00  0.0000000000e+00  2.0000000000e+02  2.0000000000e+02 0. 9.
       21     1     3     0   101   102  9.5209650402e+01 -2.1901321945e+01 -2.1341381572e+01  1.0000000000e+02  0.0000000000e+00 0. 9.
       21     1     3     0   102   101 -9.5209650402e+01  2.1901321945e+01  2.1341381572e+01  1.0000000000e+02  0.0000000000e+00 0. 9.
#pdf   11  -11  1.000000e+00  1.000000e+00  2.000000e+02  1.000000e+00  1.000000e+00
</event>
<event>
     5  9999  1.000000e+00  2.000000e+02  7.887732e-03  1.158210e-01
       11    -1     0     0     0     0  0.0000000000e+00  0.0000000000e+00  1.0000000000e+02  1.0000000000e+02  0.0000000000e+00 0. 9.
      -11    -1     0     0     0     0  0.0000000000e+00  0.0000000000e+00 -1.0000000000e+02  1.0000000000e+02  0.0000000000e+00 0. 9.
       25     2     1     2     0     0  0.0000000000e+00  0.0000000000e+00  0.0000000000e+00  2.0000000000e+02  2.0000000000e+02 0. 9.
       21     1     3     0   101   102  9.3692002920e+00 -5.9712676960e+01 -7.9665640625e+01  1.0000000000e+02  0.0000000000e+00 0. 9.
       21     1     3     0   102   101 -9.3692002920e+00  5.9712676960e+01  7.9665640625e+01  1.0000000000e+02  0.0000000000e+00 0. 9.
#pdf   11  -11  1.000000e+00  1.000000e+00  2.000000e+02  1.000000e+00  1.000000e+00
</event>
<event>
     5  9999  1.000000e+00  2.000000e+02  7.887732e-03  1.158210e-01
       11    -1     0     0     0     0  0.0000000000e+00  0.0000000000e+00  1.0000000000e+02  1.0000000000e+02  0.0000000000e+00 0. 9.
      -11    -1     0     0     0     0  0.0000000000e+00  0.0000000000e+00 -1.0000000000e+02  1.0000000000e+02  0.0000000000e+00 0. 9.
       25     2     1     2     0     0  0.0000000000e+00  0.0000000000e+00  0.0000000000e+00  2.0000000000e+02  2.0000000000e+02 0. 9.
       21     1     3     0   101   102 -4.9697037220e+00  4.7576070113e+00  9.9763055388e+01  1.0000000000e+02  0.0000000000e+00 0. 9.
       21     1     3     0   102   101  4.9697037220e+00 -4.7576070113e+00 -9.9763055388e+01  1.0000000000e+02  0.0000000000e+00 0. 9.
#pdf   11  -11  1.000000e+00  1.000000e+00  2.000000e+02  1.000000e+00  1.000000e+00
</event>
<event>
     5  9999  1.000000e+00  2.000000e+02  7.887732e-03  1.158210e-01
       11    -1     0     0     0     0  0.0000000000e+00  0.0000000000e+00  1.0000000000e+02  1.0000000000e+02  0.0000000000e+00 0. 9.
      -11    -1     0     0     0     0  0.0000000000e+00  0.0000000000e+00 -1.0000000000e+02  1.0000000000e+02  0.0000000000e+00 0. 9.
       25     2     1     2     0     0  0.0000000000e+00  0.0000000000e+00  0.0000000000e+00  2.0000000000e+02  2.0000000000e+02 0. 9.
       21     1     3     0   101   102  8.0992162717e+00  9.4522890416e+01 -3.1620023453e+01  1.0000000000e+02  0.0000000000e+00 0. 9.
       21     1     3     0   102   101 -8.0992162717e+00 -9.4522890416e+01  3.1620023453e+01  1.0000000000e+02  0.0000000000e+00 0. 9.
#pdf   11  -11  1.000000e+00  1.000000e+00  2.000000e+02  1.000000e+00  1.000000e+00
</event>
<event>
     5  9999  1.000000e+00  2.000000e+02  7.887732e-03  1.158210e-01
       11    -1     0     0     0     0  0.0000000000e+00  0.0000000000e+00  1.0000000000e+02  1.0000000000e+02  0.0000000000e+00 0. 9.
      -11    -1     0     0     0     0  0.0000000000e+00  0.0000000000e+00 -1.0000000000e+02  1.0000000000e+02  0.0000000000e+00 0. 9.
       25     2     1     2     0     0  0.0000000000e+00  0.0000000000e+00  0.0000000000e+00  2.0000000000e+02  2.0000000000e+02 0. 9.
       21     1     3     0   101   102 -1.7896880565e+01 -2.7477976672e+01  9.4470431692e+01  1.0000000000e+02  0.0000000000e+00 0. 9.
       21     1     3     0   102   101  1.7896880565e+01  2.7477976672e+01 -9.4470431692e+01  1.0000000000e+02  0.0000000000e+00 0. 9.
#pdf   11  -11  1.000000e+00  1.000000e+00  2.000000e+02  1.000000e+00  1.000000e+00
</event>
<event>
     5  9999  1.000000e+00  2.000000e+02  7.887732e-03  1.158210e-01
       11    -1     0     0     0     0  0.0000000000e+00  0.0000000000e+00  1.0000000000e+02  1.0000000000e+02  0.0000000000e+00 0. 9.
      -11    -1     0     0     0     0  0.0000000000e+00  0.0000000000e+00 -1.0000000000e+02  1.0000000000e+02  0.0000000000e+00 0. 9.
       25     2     1     2     0     0  0.0000000000e+00  0.0000000000e+00  0.0000000000e+00  2.0000000000e+02  2.0000000000e+02 0. 9.
       21     1     3     0   101   102 -1.9879816394e+01 -9.5280665543e+01  2.2943140016e+01  1.0000000000e+02  0.0000000000e+00 0. 9.
       21     1     3     0   102   101  1.9879816394e+01  9.5280665543e+01 -2.2943140016e+01  1.0000000000e+02  0.0000000000e+00 0. 9.
#pdf   11  -11  1.000000e+00  1.000000e+00  2.000000e+02  1.000000e+00  1.000000e+00
</event>
<event>
     5  9999  1.000000e+00  2.000000e+02  7.887732e-03  1.158210e-01
       11    -1     0     0     0     0  0.0000000000e+00  0.0000000000e+00  1.0000000000e+02  1.0000000000e+02  0.0000000000e+00 0. 9.
      -11    -1     0     0     0     0  0.0000000000e+00  0.0000000000e+00 -1.0000000000e+02  1.0000000000e+02  0.0000000000e+00 0. 9.
       25     2     1     2     0     0  0.0000000000e+00  0.0000000000e+00  0.0000000000e+00  2.0000000000e+02  2.0000000000e+02 0. 9.
       21     1     3     0   101   102  8.0570944427e+00  6.7170294969e+01  7.3642614721e+01  1.0000000000e+02  0.0000000000e+00 0. 9.
       21     1     3     0   102   101 -8.0570944427e+00 -6.7170294969e+01 -7.3642614721e+01  1.0000000000e+02  0.0000000000e+00 0. 9.
#pdf   11  -11  1.000000e+00  1.000000e+00  2.000000e+02  1.000000e+00  1.000000e+00
</event>
<event>
     5  9999  1.000000e+00  2.000000e+02  7.887732e-03  1.158210e-01
       11    -1     0     0     0     0  0.0000000000e+00  0.0000000000e+00  1.0000000000e+02  1.0000000000e+02  0.0000000000e+00 0. 9.
      -11    -1     0     0     0     0  0.0000000000e+00  0.0000000000e+00 -1.0000000000e+02  1.0000000000e+02  0.0000000000e+00 0. 9.
       25     2     1     2     0     0  0.0000000000e+00  0.0000000000e+00  0.0000000000e+00  2.0000000000e+02  2.0000000000e+02 0. 9.
       21     1     3     0   101   102  8.7112780518e+01 -4.7451245502e+01  1.2638938668e+01  1.0000000000e+02  0.0000000000e+00 0. 9.
       21     1     3     0   102   101 -8.7112780518e+01  4.7451245502e+01 -1.2638938668e+01  1.0000000000e+02  0.0000000000e+00 0. 9.
#pdf   11  -11  1.000000e+00  1.000000e+00  2.000000e+02  1.000000e+00  1.000000e+00
</event>
<event>
     5  9999  1.000000e+00  2.000000e+02  7.887732e-03  1.158210e-01
       11    -1     0     0     0     0  0.0000000000e+00  0.0000000000e+00  1.0000000000e+02  1.0000000000e+02  0.0000000000e+00 0. 9.
      -11    -1     0     0     0     0  0.0000000000e+00  0.0000000000e+00 -1.0000000000e+02  1.0000000000e+02  0.0000000000e+00 0. 9.
       25     2     1     2     0     0  0.0000000000e+00  0.0000000000e+00  0.0000000000e+00  2.0000000000e+02  2.0000000000e+02 0. 9.
       21     1     3     0   101   102 -9.5613276313e+01  1.8327283882e+01  2.2851959613e+01  1.0000000000e+02  0.0000000000e+00 0. 9.
       21     1     3     0   102   101  9.5613276313e+01 -1.8327283882e+01 -2.2851959613e+01  1.0000000000e+02  0.0000000000e+00 0. 9.
#pdf   11  -11  1.000000e+00  1.000000e+00  2.000000e+02  1.000000e+00  1.000000e+00
</event>
<event>
     5  9999  1.000000e+00  2.000000e+02  7.887732e-03  1.158210e-01
       11    -1     0     0     0     0  0.0000000000e+00  0.0000000000e+00  1.0000000000e+02  1.0000000000e+02  0.0000000000e+00 0. 9.
      -11    -1     0     0     0     0  0.0000000000e+00  0.0000000000e+00 -1.0000000000e+02  1.0000000000e+02  0.0000000000e+00 0. 9.
       25     2     1     2     0     0  0.0000000000e+00  0.0000000000e+00  0.0000000000e+00  2.0000000000e+02  2.0000000000e+02 0. 9.
       21     1     3     0   101   102 -3.0173728473e+00  8.7127385804e+01 -4.8986876855e+01  1.0000000000e+02  0.0000000000e+00 0. 9.
       21     1     3     0   102   101  3.0173728473e+00 -8.7127385804e+01  4.8986876855e+01  1.0000000000e+02  0.0000000000e+00 0. 9.
#pdf   11  -11  1.000000e+00  1.000000e+00  2.000000e+02  1.000000e+00  1.000000e+00
</event>
<event>
     5  9999  1.000000e+00  2.000000e+02  7.887732e-03  1.158210e-01
       11    -1     0     0     0     0  0.0000000000e+00  0.0000000000e+00  1.0000000000e+02  1.0000000000e+02  0.0000000000e+00 0. 9.
      -11    -1     0     0     0     0  0.0000000000e+00  0.0000000000e+00 -1.0000000000e+02  1.0000000000e+02  0.0000000000e+00 0. 9.
       25     2     1     2     0     0  0.0000000000e+00  0.0000000000e+00  0.0000000000e+00  2.0000000000e+02  2.0000000000e+02 0. 9.
       21     1     3     0   101   102  5.5959042521e+01  8.0944402676e+01  1.7792954660e+01  1.0000000000e+02  0.0000000000e+00 0. 9.
       21     1     3     0   102   101 -5.5959042521e+01 -8.0944402676e+01 -1.7792954660e+01  1.0000000000e+02  0.0000000000e+00 0. 9.
#pdf   11  -11  1.000000e+00  1.000000e+00  2.000000e+02  1.000000e+00  1.000000e+00
</event>
<event>
     5  9999  1.000000e+00  2.000000e+02  7.887732e-03  1.158210e-01
       11    -1     0     0     0     0  0.0000000000e+00  0.0000000000e+00  1.0000000000e+02  1.0000000000e+02  0.0000000000e+00 0. 9.
      -11    -1     0     0     0     0  0.0000000000e+00  0.0000000000e+00 -1.0000000000e+02  1.0000000000e+02  0.0000000000e+00 0. 9.
       25     2     1     2     0     0  0.0000000000e+00  0.0000000000e+00  0.0000000000e+00  2.0000000000e+02  2.0000000000e+02 0. 9.
       21     1     3     0   101   102  5.2765383192e+01 -2.9897244788e+01  7.9510811156e+01  1.0000000000e+02  0.0000000000e+00 0. 9.
       21     1     3     0   102   101 -5.2765383192e+01  2.9897244788e+01 -7.9510811156e+01  1.0000000000e+02  0.0000000000e+00 0. 9.
#pdf   11  -11  1.000000e+00  1.000000e+00  2.000000e+02  1.000000e+00  1.000000e+00
</event>
<event>
     5  9999  1.000000e+00  2.000000e+02  7.887732e-03  1.158210e-01
       11    -1     0     0     0     0  0.0000000000e+00  0.0000000000e+00  1.0000000000e+02  1.0000000000e+02  0.0000000000e+00 0. 9.
      -11    -1     0     0     0     0  0.0000000000e+00  0.0000000000e+00 -1.0000000000e+02  1.0000000000e+02  0.0000000000e+00 0. 9.
       25     2     1     2     0     0  0.0000000000e+00  0.0000000000e+00  0.0000000000e+00  2.0000000000e+02  2.0000000000e+02 0. 9.
       21     1     3     0   101   102 -5.2465475198e+00  7.7302148554e+01  6.3220657763e+01  1.0000000000e+02  0.0000000000e+00 0. 9.
       21     1     3     0   102   101  5.2465475198e+00 -7.7302148554e+01 -6.3220657763e+01  1.0000000000e+02  0.0000000000e+00 0. 9.
#pdf   11  -11  1.000000e+00  1.000000e+00  2.000000e+02  1.000000e+00  1.000000e+00
</event>
<event>
     5  9999  1.000000e+00  2.000000e+02  7.887732e-03  1.158210e-01
       11    -1     0     0     0     0  0.0000000000e+00  0.0000000000e+00  1.0000000000e+02  1.0000000000e+02  0.0000000000e+00 0. 9.
      -11    -1     0     0     0     0  0.0000000000e+00  0.0000000000e+00 -1.0000000000e+02  1.0000000000e+02  0.0000000000e+00 0. 9.
       25     2     1     2     0     0  0.0000000000e+00  0.0000000000e+00  0.0000000000e+00  2.0000000000e+02  2.0000000000e+02 0. 9.
       21     1     3     0   101   102  9.0798268572e+00  4.9669506491e+01 -8.6316260746e+01  1.0000000000e+02  0.0000000000e+00 0. 9.
       21     1     3     0   102   101 -9.0798268572e+00 -4.9669506491e+01  8.6316260746e+01  1.0000000000e+02  0.0000000000e+00 0. 9.
#pdf   11  -11  1.000000e+00  1.000000e+00  2.000000e+02  1.000000e+00  1.000000e+00
</event>
<event>
     5  9999  1.000000e+00  2.000000e+02  7.887732e-03  1.158210e-01
       11    -1     0     0     0     0  0.0000000000e+00  0.0000000000e+00  1.0000000000e+02  1.0000000000e+02  0.0000000000e+00 0. 9.
      -11    -1     0     0     0     0  0.0000000000e+00  0.0000000000e+00 -1.0000000000e+02  1.0000000000e+02  0.0000000000e+00 0. 9.
       25     2     1     2     0     0  0.0000000000e+00  0.0000000000e+00  0.0000000000e+00  2.0000000000e+02  2.0000000000e+02 0. 9.
       21     1     3     0   101   102 -3.3073644227e+01  8.6705526025e+01  3.7259707653e+01  1.0000000000e+02  0.0000000000e+00 0. 9.
       21     1     3     0   102   101  3.3073644227e+01 -8.6705526025e+01 -3.7259707653e+01  1.0000000000e+02  0.0000000000e+00 0. 9.
#pdf   11  -11  1.000000e+00  1.000000e+00  2.000000e+02  1.000000e+00  1.000000e+00
</event>
<event>
     5  9999  1.000000e+00  2.000000e+02  7.887732e-03  1.158210e-01
       11    -1     0     0     0     0  0.0000000000e+00  0.0000000000e+00  1.0000000000e+02  1.0000000000e+02  0.0000000000e+00 0. 9.
      -11    -1     0     0     0     0  0.0000000000e+00  0.0000000000e+00 -1.0000000000e+02  1.0000000000e+02  0.0000000000e+00 0. 9.
       25     2     1     2     0     0  0.0000000000e+00  0.0000000000e+00  0.0000000000e+00  2.0000000000e+02  2.0000000000e+02 0. 9.
       21     1     3     0   101   102 -1.4500259050e+01  9.6755106765e+01  2.0692795906e+01  1.0000000000e+02  0.0000000000e+00 0. 9.
       21     1     3     0   102   101  1.4500259050e+01 -9.6755106765e+01 -2.0692795906e+01  1.0000000000e+02  0.0000000000e+00 0. 9.
#pdf   11  -11  1.000000e+00  1.000000e+00  2.000000e+02  1.000000e+00  1.000000e+00
</event>
<event>
     5  9999  1.000000e+00  2.000000e+02  7.887732e-03  1.158210e-01
       11    -1     0     0     0     0  0.0000000000e+00  0.0000000000e+00  1.0000000000e+02  1.0000000000e+02  0.0000000000e+00 0. 9.
      -11    -1     0     0     0     0  0.0000000000e+00  0.0000000000e+00 -1.0000000000e+02  1.0000000000e+02  0.0000000000e+00 0. 9.
       25     2     1     2     0     0  0.0000000000e+00  0.0000000000e+00  0.0000000000e+00  2.0000000000e+02  2.0000000000e+02 0. 9.
       21     1     3     0   101   102 -8.6066615716e+01 -3.6637079018e+01 -3.5359045521e+01  1.0000000000e+02  0.0000000000e+00 0. 9.
       21     1     3     0   102   101  8.6066615716e+01  3.6637079018e+01  3.5359045521e+01  1.0000000000e+02  0.0000000000e+00 0. 9.
#pdf   11  -11  1.000000e+00  1.000000e+00  2.000000e+02  1.000000e+00  1.000000e+00
</event>
<event>
     5  9999  1.000000e+00  2.000000e+02  7.887732e-03  1.158210e-01
       11    -1     0     0     0     0  0.0000000000e+00  0.0000000000e+00  1.0000000000e+02  1.0000000000e+02  0.0000000000e+00 0. 9.
      -11    -1     0     0     0     0  0.0000000000e+00  0.0000000000e+00 -1.0000000000e+02  1.0000000000e+02  0.0000000000e+00 0. 9.
       25     2     1     2     0     0  0.0000000000e+00  0.0000000000e+00  0.0000000000e+00  2.0000000000e+02  2.0000000000e+02 0. 9.
       21     1     3     0   101   102  5.2086323795e+01  5.2206659164e+01  6.7538726761e+01  1.0000000000e+02  0.0000000000e+00 0. 9.
       21     1     3     0   102   101 -5.2086323795e+01 -5.2206659164e+01 -6.7538726761e+01  1.0000000000e+02  0.0000000000e+00 0. 9.
#pdf   11  -11  1.000000e+00  1.000000e+00  2.000000e+02  1.000000e+00  1.000000e+00
</event>
<event>
     5  9999  1.000000e+00  2.000000e+02  7.887732e-03  1.158210e-01
       11    -1     0     0     0     0  0.0000000000e+00  0.0000000000e+00  1.0000000000e+02  1.0000000000e+02  0.0000000000e+00 0. 9.
      -11    -1     0     0     0     0  0.0000000000e+00  0.0000000000e+00 -1.0000000000e+02  1.0000000000e+02  0.0000000000e+00 0. 9.
       25     2     1     2     0     0  0.0000000000e+00  0.0000000000e+00  0.0000000000e+00  2.0000000000e+02  2.0000000000e+02 0. 9.
       21     1     3     0   101   102 -2.1378204515e+01 -1.6758882351e+01 -9.6239868215e+01  1.0000000000e+02  0.0000000000e+00 0. 9.
       21     1     3     0   102   101  2.1378204515e+01  1.6758882351e+01  9.6239868215e+01  1.0000000000e+02  0.0000000000e+00 0. 9.
#pdf   11  -11  1.000000e+00  1.000000e+00  2.000000e+02  1.000000e+00  1.000000e+00
</event>
<event>
     5  9999  1.000000e+00  2.000000e+02  7.887732e-03  1.158210e-01
       11    -1     0     0     0     0  0.0000000000e+00  0.0000000000e+00  1.0000000000e+02  1.0000000000e+02  0.0000000000e+00 0. 9.
      -11    -1     0     0     0     0  0.0000000000e+00  0.0000000000e+00 -1.0000000000e+02  1.0000000000e+02  0.0000000000e+00 0. 9.
       25     2     1     2     0     0  0.0000000000e+00  0.0000000000e+00  0.0000000000e+00  2.0000000000e+02  2.0000000000e+02 0. 9.
       21     1     3     0   101   102  9.0745212174e+01  4.0810319966e+01 -9.9912087256e+00  1.0000000000e+02  0.0000000000e+00 0. 9.
       21     1     3     0   102   101 -9.0745212174e+01 -4.0810319966e+01  9.9912087256e+00  1.0000000000e+02  0.0000000000e+00 0. 9.
#pdf   11  -11  1.000000e+00  1.000000e+00  2.000000e+02  1.000000e+00  1.000000e+00
</event>
<event>
     5  9999  1.000000e+00  2.000000e+02  7.887732e-03  1.158210e-01
       11    -1     0     0     0     0  0.0000000000e+00  0.0000000000e+00  1.0000000000e+02  1.0000000000e+02  0.0000000000e+00 0. 9.
      -11    -1     0     0     0     0  0.0000000000e+00  0.0000000000e+00 -1.0000000000e+02  1.0000000000e+02  0.0000000000e+00 0. 9.
       25     2     1     2     0     0  0.0000000000e+00  0.0000000000e+00  0.0000000000e+00  2.0000000000e+02  2.0000000000e+02 0. 9.
       21     1     3     0   101   102 -1.3235628200e+01 -7.6600683111e+01 -6.2905909842e+01  1.0000000000e+02  0.0000000000e+00 0. 9.
       21     1     3     0   102   101  1.3235628200e+01  7.6600683111e+01  6.2905909842e+01  1.0000000000e+02  0.0000000000e+00 0. 9.
#pdf   11  -11  1.000000e+00  1.000000e+00  2.000000e+02  1.000000e+00  1.000000e+00
</event>
<event>
     5  9999  1.000000e+00  2.000000e+02  7.887732e-03  1.158210e-01
       11    -1     0     0     0     0  0.0000000000e+00  0.0000000000e+00  1.0000000000e+02  1.0000000000e+02  0.0000000000e+00 0. 9.
      -11    -1     0     0     0     0  0.0000000000e+00  0.0000000000e+00 -1.0000000000e+02  1.0000000000e+02  0.0000000000e+00 0. 9.
       25     2     1     2     0     0  0.0000000000e+00  0.0000000000e+00  0.0000000000e+00  2.0000000000e+02  2.0000000000e+02 0. 9.
       21     1     3     0   101   102 -3.3722282870e+01 -8.1091070287e+01  4.7823069305e+01  1.0000000000e+02  0.0000000000e+00 0. 9.
       21     1     3     0   102   101  3.3722282870e+01  8.1091070287e+01 -4.7823069305e+01  1.0000000000e+02  0.0000000000e+00 0. 9.
#pdf   11  -11  1.000000e+00  1.000000e+00  2.000000e+02  1.000000e+00  1.000000e+00
</event>
<event>
     5  9999  1.000000e+00  2.000000e+02  7.887732e-03  1.158210e-01
       11    -1     0     0     0     0  0.0000000000e+00  0.0000000000e+00  1.0000000000e+02  1.0000000000e+02  0.0000000000e+00 0. 9.
      -11    -1     0     0     0     0  0.0000000000e+00  0.0000000000e+00 -1.0000000000e+02  1.0000000000e+02  0.0000000000e+00 0. 9.
       25     2     1     2     0     0  0.0000000000e+00  0.0000000000e+00  0.0000000000e+00  2.0000000000e+02  2.0000000000e+02 0. 9.
       21     1     3     0   101   102  3.8958977696e+01 -9.2004619607e+01  4.1650963730e+00  1.0000000000e+02  0.0000000000e+00 0. 9.
       21     1     3     0   102   101 -3.8958977696e+01  9.2004619607e+01 -4.1650963730e+00  1.0000000000e+02  0.0000000000e+00 0. 9.
#pdf   11  -11  1.000000e+00  1.000000e+00  2.000000e+02  1.000000e+00  1.000000e+00
</event>
<event>
     5  9999  1.000000e+00  2.000000e+02  7.887732e-03  1.158210e-01
       11    -1     0     0     0     0  0.0000000000e+00  0.0000000000e+00  1.0000000000e+02  1.0000000000e+02  0.0000000000e+00 0. 9.
      -11    -1     0     0     0     0  0.0000000000e+00  0.0000000000e+00 -1.0000000000e+02  1.0000000000e+02  0.0000000000e+00 0. 9.
       25     2     1     2     0     0  0.0000000000e+00  0.0000000000e+00  0.0000000000e+00  2.0000000000e+02  2.0000000000e+02 0. 9.
       21     1     3     0   101   102 -3.5901726508e+01 -8.6095516391e+01  3.6036482779e+01  1.0000000000e+02  0.0000000000e+00 0. 9.
       21     1     3     0   102   101  3.5901726508e+01  8.6095516391e+01 -3.6036482779e+01  1.0000000000e+02  0.0000000000e+00 0. 9.
#pdf   11  -11  1.000000e+00  1.000000e+00  2.000000e+02  1.000000e+00  1.000000e+00
</event>
<event>
     5  9999  1.000000e+00  2.000000e+02  7.887732e-03  1.158210e-01
       11    -1     0     0     0     0  0.0000000000e+00  0.0000000000e+00  1.0000000000e+02  1.0000000000e+02  0.0000000000e+00 0. 9.
      -11    -1     0     0     0     0  0.0000000000e+00  0.0000000000e+00 -1.0000000000e+02  1.0000000000e+02  0.0000000000e+00 0. 9.
       25     2     1     2     0     0  0.0000000000e+00  0.0000000000e+00  0.0000000000e+00  2.0000000000e+02  2.0000000000e+02 0. 9.
       21     1     3     0   101   102 -8.9951660252e+01 -2.6598774231e+01 -3.4658390432e+01  1.0000000000e+02  0.0000000000e+00 0. 9.
       21     1     3     0   102   101  8.9951660252e+01  2.6598774231e+01  3.4658390432e+01  1.0000000000e+02  0.0000000000e+00 0. 9.
#pdf   11  -11  1.000000e+00  1.000000e+00  2.000000e+02  1.000000e+00  1.000000e+00
</event>
<event>
     5  9999  1.000000e+00  2.000000e+02  7.887732e-03  1.158210e-01
       11    -1     0     0     0     0  0.0000000000e+00  0.0000000000e+00  1.0000000000e+02  1.0000000000e+02  0.0000000000e+00 0. 9.
      -11    -1     0     0     0     0  0.0000000000e+00  0.0000000000e+00 -1.0000000000e+02  1.0000000000e+02  0.0000000000e+00 0. 9.
       25     2     1     2     0     0  0.0000000000e+00  0.0000000000e+00  0.0000000000e+00  2.0000000000e+02  2.0000000000e+02 0. 9.
       21     1     3     0   101   102  9.3747784904e+01  2.8508494895e+01  1.9965433742e+01  1.0000000000e+02  0.0000000000e+00 0. 9.
       21     1     3     0   102   101 -9.3747784904e+01 -2.8508494895e+01 -1.9965433742e+01  1.0000000000e+02  0.0000000000e+00 0. 9.
#pdf   11  -11  1.000000e+00  1.000000e+00  2.000000e+02  1.000000e+00  1.000000e+00
</event>
<event>
     5  9999  1.000000e+00  2.000000e+02  7.887732e-03  1.158210e-01
       11    -1     0     0     0     0  0.0000000000e+00  0.0000000000e+00  1.0000000000e+02  1.0000000000e+02  0.0000000000e+00 0. 9.
      -11    -1     0     0     0     0  0.0000000000e+00  0.0000000000e+00 -1.0000000000e+02  1.0000000000e+02  0.0000000000e+00 0. 9.
       25     2     1     2     0     0  0.0000000000e+00  0.0000000000e+00  0.0000000000e+00  2.0000000000e+02  2.0000000000e+02 0. 9.
       21     1     3     0   101   102 -3.6240057941e+01 -9.1525648942e+01  1.7598687058e+01  1.0000000000e+02  0.0000000000e+00 0. 9.
       21     1     3     0   102   101  3.6240057941e+01  9.1525648942e+01 -1.7598687058e+01  1.0000000000e+02  0.0000000000e+00 0. 9.
#pdf   11  -11  1.000000e+00  1.000000e+00  2.000000e+02  1.000000e+00  1.000000e+00
</event>
<event>
     5  9999  1.000000e+00  2.000000e+02  7.887732e-03  1.158210e-01
       11    -1     0     0     0     0  0.0000000000e+00  0.0000000000e+00  1.0000000000e+02  1.0000000000e+02  0.0000000000e+00 0. 9.
      -11    -1     0     0     0     0  0.0000000000e+00  0.0000000000e+00 -1.0000000000e+02  1.0000000000e+02  0.0000000000e+00 0. 9.
       25     2     1     2     0     0  0.0000000000e+00  0.0000000000e+00  0.0000000000e+00  2.0000000000e+02  2.0000000000e+02 0. 9.
       21     1     3     0   101   102 -8.4423045690e+00 -4.4339892754e+01  8.9233970012e+01  1.0000000000e+02  0.0000000000e+00 0. 9.
       21     1     3     0   102   101  8.4423045690e+00  4.4339892754e+01 -8.9233970012e+01  1.0000000000e+02  0.0000000000e+00 0. 9.
#pdf   11  -11  1.000000e+00  1.000000e+00  2.000000e+02  1.000000e+00  1.000000e+00
</event>
<event>
     5  9999  1.000000e+00  2.000000e+02  7.887732e-03  1.158210e-01
       11    -1     0     0     0     0  0.0000000000e+00  0.0000000000e+00  1.0000000000e+02  1.0000000000e+02  0.0000000000e+00 0. 9.
      -11    -1     0     0     0     0  0.0000000000e+00  0.0000000000e+00 -1.0000000000e+02  1.0000000000e+02  0.0000000000e+00 0. 9.
       25     2     1     2     0     0  0.0000000000e+00  0.0000000000e+00  0.0000000000e+00  2.0000000000e+02  2.0000000000e+02 0. 9.
       21     1     3     0   101   102  9.9017317319e+01 -1.3564875061e+01  3.4007404468e+00  1.0000000000e+02  0.0000000000e+00 0. 9.
       21     1     3     0   102   101 -9.9017317319e+01  1.3564875061e+01 -3.4007404468e+00  1.0000000000e+02  0.0000000000e+00 0. 9.
#pdf   11  -11  1.000000e+00  1.000000e+00  2.000000e+02  1.000000e+00  1.000000e+00
</event>
<event>
     5  9999  1.000000e+00  2.000000e+02  7.887732e-03  1.158210e-01
       11    -1     0     0     0     0  0.0000000000e+00  0.0000000000e+00  1.0000000000e+02  1.0000000000e+02  0.0000000000e+00 0. 9.
      -11    -1     0     0     0     0  0.0000000000e+00  0.0000000000e+00 -1.0000000000e+02  1.0000000000e+02  0.0000000000e+00 0. 9.
       25     2     1     2     0     0  0.0000000000e+00  0.0000000000e+00  0.0000000000e+00  2.0000000000e+02  2.0000000000e+02 0. 9.
       21     1     3     0   101   102  9.2568333251e+01  3.6781672041e+01  8.8437707434e+00  1.0000000000e+02  0.0000000000e+00 0. 9.
       21     1     3     0   102   101 -9.2568333251e+01 -3.6781672041e+01 -8.8437707434e+00  1.0000000000e+02  0.0000000000e+00 0. 9.
#pdf   11  -11  1.000000e+00  1.000000e+00  2.000000e+02  1.000000e+00  1.000000e+00
</event>
<event>
     5  9999  1.000000e+00  2.000000e+02  7.887732e-03  1.158210e-01
       11    -1     0     0     0     0  0.0000000000e+00  0.0000000000e+00  1.0000000000e+02  1.0000000000e+02  0.0000000000e+00 0. 9.
      -11    -1     0     0     0     0  0.0000000000e+00  0.0000000000e+00 -1.0000000000e+02  1.0000000000e+02  0.0000000000e+00 0. 9.
       25     2     1     2     0     0  0.0000000000e+00  0.0000000000e+00  0.0000000000e+00  2.0000000000e+02  2.0000000000e+02 0. 9.
       21     1     3     0   101   102  7.6449355837e+01 -4.3245909092e+01  4.7804679048e+01  1.0000000000e+02  0.0000000000e+00 0. 9.
       21     1     3     0   102   101 -7.6449355837e+01  4.3245909092e+01 -4.7804679048e+01  1.0000000000e+02  0.0000000000e+00 0. 9.
#pdf   11  -11  1.000000e+00  1.000000e+00  2.000000e+02  1.000000e+00  1.000000e+00
</event>
<event>
     5  9999  1.000000e+00  2.000000e+02  7.887732e-03  1.158210e-01
       11    -1     0     0     0     0  0.0000000000e+00  0.0000000000e+00  1.0000000000e+02  1.0000000000e+02  0.0000000000e+00 0. 9.
      -11    -1     0     0     0     0  0.0000000000e+00  0.0000000000e+00 -1.0000000000e+02  1.0000000000e+02  0.0000000000e+00 0. 9.
       25     2     1     2     0     0  0.0000000000e+00  0.0000000000e+00  0.0000000000e+00  2.0000000000e+02  2.0000000000e+02 0. 9.
       21     1     3     0   101   102  4.0774545462e+01 -1.4782338065e+01 -9.0105043830e+01  1.0000000000e+02  0.0000000000e+00 0. 9.
       21     1     3     0   102   101 -4.0774545462e+01  1.4782338065e+01  9.0105043830e+01  1.0000000000e+02  0.0000000000e+00 0. 9.
#pdf   11  -11  1.000000e+00  1.000000e+00  2.000000e+02  1.000000e+00  1.000000e+00
</event>
<event>
     5  9999  1.000000e+00  2.000000e+02  7.887732e-03  1.158210e-01
       11    -1     0     0     0     0  0.0000000000e+00  0.0000000000e+00  1.0000000000e+02  1.0000000000e+02  0.0000000000e+00 0. 9.
      -11    -1     0     0     0     0  0.0000000000e+00  0.0000000000e+00 -1.0000000000e+02  1.0000000000e+02  0.0000000000e+00 0. 9.
       25     2     1     2     0     0  0.0000000000e+00  0.0000000000e+00  0.0000000000e+00  2.0000000000e+02  2.0000000000e+02 0. 9.
       21     1     3     0   101   102  7.2065035462e+01  6.3941018059e+01  2.6798822239e+01  1.0000000000e+02  0.0000000000e+00 0. 9.
       21     1     3     0   102   101 -7.2065035462e+01 -6.3941018059e+01 -2.6798822239e+01  1.0000000000e+02  0.0000000000e+00 0. 9.
#pdf   11  -11  1.000000e+00  1.000000e+00  2.000000e+02  1.000000e+00  1.000000e+00
</event>
<event>
     5  9999  1.000000e+00  2.000000e+02  7.887732e-03  1.158210e-01
       11    -1     0     0     0     0  0.0000000000e+00  0.0000000000e+00  1.0000000000e+02  1.0000000000e+02  0.0000000000e+00 0. 9.
      -11    -1     0     0     0     0  0.0000000000e+00  0.0000000000e+00 -1.0000000000e+02  1.0000000000e+02  0.0000000000e+00 0. 9.
       25     2     1     2     0     0  0.0000000000e+00  0.0000000000e+00  0.0000000000e+00  2.0000000000e+02  2.0000000000e+02 0. 9.
       21     1     3     0   101   102  8.4837874629e+01  1.4994526640e+01  5.0771046860e+01  1.0000000000e+02  0.0000000000e+00 0. 9.
       21     1     3     0   102   101 -8.4837874629e+01 -1.4994526640e+01 -5.0771046860e+01  1.0000000000e+02  0.0000000000e+00 0. 9.
#pdf   11  -11  1.000000e+00  1.000000e+00  2.000000e+02  1.000000e+00  1.000000e+00
</event>
<event>
     5  9999  1.000000e+00  2.000000e+02  7.887732e-03  1.158210e-01
       11    -1     0     0     0     0  0.0000000000e+00  0.0000000000e+00  1.0000000000e+02  1.0000000000e+02  0.0000000000e+00 0. 9.
      -11    -1     0     0     0     0  0.0000000000e+00  0.0000000000e+00 -1.0000000000e+02  1.0000000000e+02  0.0000000000e+00 0. 9.
       25     2     1     2     0     0  0.0000000000e+00  0.0000000000e+00  0.0000000000e+00  2.0000000000e+02  2.0000000000e+02 0. 9.
       21     1     3     0   101   102  2.8633669151e+01 -6.4456858821e+01  7.0890241514e+01  1.0000000000e+02  0.0000000000e+00 0. 9.
       21     1     3     0   102   101 -2.8633669151e+01  6.4456858821e+01 -7.0890241514e+01  1.0000000000e+02  0.0000000000e+00 0. 9.
#pdf   11  -11  1.000000e+00  1.000000e+00  2.000000e+02  1.000000e+00  1.000000e+00
</event>
<event>
     5  9999  1.000000e+00  2.000000e+02  7.887732e-03  1.158210e-01
       11    -1     0     0     0     0  0.0000000000e+00  0.0000000000e+00  1.0000000000e+02  1.0000000000e+02  0.0000000000e+00 0. 9.
      -11    -1     0     0     0     0  0.0000000000e+00  0.0000000000e+00 -1.0000000000e+02  1.0000000000e+02  0.0000000000e+00 0. 9.
       25     2     1     2     0     0  0.0000000000e+00  0.0000000000e+00  0.0000000000e+00  2.0000000000e+02  2.0000000000e+02 0. 9.
       21     1     3     0   101   102 -1.6526687993e+01 -2.9066991998e+01  9.4244249481e+01  1.0000000000e+02  0.0000000000e+00 0. 9.
       21     1     3     0   102   101  1.6526687993e+01  2.9066991998e+01 -9.4244249481e+01  1.0000000000e+02  0.0000000000e+00 0. 9.
#pdf   11  -11  1.000000e+00  1.000000e+00  2.000000e+02  1.000000e+00  1.000000e+00
</event>
<event>
     5  9999  1.000000e+00  2.000000e+02  7.887732e-03  1.158210e-01
       11    -1     0     0     0     0  0.0000000000e+00  0.0000000000e+00  1.0000000000e+02  1.0000000000e+02  0.0000000000e+00 0. 9.
      -11    -1     0     0     0     0  0.0000000000e+00  0.0000000000e+00 -1.0000000000e+02  1.0000000000e+02  0.0000000000e+00 0. 9.
       25     2     1     2     0     0  0.0000000000e+00  0.0000000000e+00  0.0000000000e+00  2.0000000000e+02  2.0000000000e+02 0. 9.
       21     1     3     0   101   102  8.9574496238e+00  5.0710742518e+01 -8.5721553238e+01  1.0000000000e+02  0.0000000000e+00 0. 9.
       21     1     3     0   102   101 -8.9574496238e+00 -5.0710742518e+01  8.5721553238e+01  1.0000000000e+02  0.0000000000e+00 0. 9.
#pdf   11  -11  1.000000e+00  1.000000e+00  2.000000e+02  1.000000e+00  1.000000e+00
</event>
<event>
     5  9999  1.000000e+00  2.000000e+02  7.887732e-03  1.158210e-01
       11    -1     0     0     0     0  0.0000000000e+00  0.0000000000e+00  1.0000000000e+02  1.0000000000e+02  0.0000000000e+00 0. 9.
      -11    -1     0     0     0     0  0.0000000000e+00  0.0000000000e+00 -1.0000000000e+02  1.0000000000e+02  0.0000000000e+00 0. 9.
       25     2     1     2     0     0  0.0000000000e+00  0.0000000000e+00  0.0000000000e+00  2.0000000000e+02  2.0000000000e+02 0. 9.
       21     1     3     0   101   102 -5.5450222174e+01 -5.1767531038e+01  6.5156700278e+01  1.0000000000e+02  0.0000000000e+00 0. 9.
       21     1     3     0   102   101  5.5450222174e+01  5.1767531038e+01 -6.5156700278e+01  1.0000000000e+02  0.0000000000e+00 0. 9.
#pdf   11  -11  1.000000e+00  1.000000e+00  2.000000e+02  1.000000e+00  1.000000e+00
</event>
<event>
     5  9999  1.000000e+00  2.000000e+02  7.887732e-03  1.158210e-01
       11    -1     0     0     0     0  0.0000000000e+00  0.0000000000e+00  1.0000000000e+02  1.0000000000e+02  0.0000000000e+00 0. 9.
      -11    -1     0     0     0     0  0.0000000000e+00  0.0000000000e+00 -1.0000000000e+02  1.0000000000e+02  0.0000000000e+00 0. 9.
       25     2     1     2     0     0  0.0000000000e+00  0.0000000000e+00  0.0000000000e+00  2.0000000000e+02  2.0000000000e+02 0. 9.
       21     1     3     0   101   102 -2.4325811498e+01  6.6124833635e+01  7.0963097957e+01  1.0000000000e+02  0.0000000000e+00 0. 9.
       21     1     3     0   102   101  2.4325811498e+01 -6.6124833635e+01 -7.0963097957e+01  1.0000000000e+02  0.0000000000e+00 0. 9.
#pdf   11  -11  1.000000e+00  1.000000e+00  2.000000e+02  1.000000e+00  1.000000e+00
</event>
<event>
     5  9999  1.000000e+00  2.000000e+02  7.887732e-03  1.158210e-01
       11    -1     0     0     0     0  0.0000000000e+00  0.0000000000e+00  1.0000000000e+02  1.0000000000e+02  0.0000000000e+00 0. 9.
      -11    -1     0     0     0     0  0.0000000000e+00  0.0000000000e+00 -1.0000000000e+02  1.0000000000e+02  0.0000000000e+00 0. 9.
       25     2     1     2     0     0  0.0000000000e+00  0.0000000000e+00  0.0000000000e+00  2.0000000000e+02  2.0000000000e+02 0. 9.
       21     1     3     0   101   102 -9.0916007404e+01 -1.0103952645e+01  4.0400368051e+01  1.0000000000e+02  0.0000000000e+00 0. 9.
       21     1     3     0   102   101  9.0916007404e+01  1.0103952645e+01 -4.0400368051e+01  1.0000000000e+02  0.0000000000e+00 0. 9.
#pdf   11  -11  1.000000e+00  1.000000e+00  2.000000e+02  1.000000e+00  1.000000e+00
</event>
<event>
     5  9999  1.000000e+00  2.000000e+02  7.887732e-03  1.158210e-01
       11    -1     0     0     0     0  0.0000000000e+00  0.0000000000e+00  1.0000000000e+02  1.0000000000e+02  0.0000000000e+00 0. 9.
      -11    -1     0     0     0     0  0.0000000000e+00  0.0000000000e+00 -1.0000000000e+02  1.0000000000e+02  0.0000000000e+00 0. 9.
       25     2     1     2     0     0  0.0000000000e+00  0.0000000000e+00  0.0000000000e+00  2.0000000000e+02  2.0000000000e+02 0. 9.
       21     1     3     0   101   102  8.6962197593e+01  3.0363264749e+01 -3.8931328561e+01  1.0000000000e+02  0.0000000000e+00 0. 9.
       21     1     3     0   102   101 -8.6962197593e+01 -3.0363264749e+01  3.8931328561e+01  1.0000000000e+02  0.0000000000e+00 0. 9.
#pdf   11  -11  1.000000e+00  1.000000e+00  2.000000e+02  1.000000e+00  1.000000e+00
</event>
<event>
     5  9999  1.000000e+00  2.000000e+02  7.887732e-03  1.158210e-01
       11    -1     0     0     0     0  0.0000000000e+00  0.0000000000e+00  1.0000000000e+02  1.0000000000e+02  0.0000000000e+00 0. 9.
      -11    -1     0     0     0     0  0.0000000000e+00  0.0000000000e+00 -1.0000000000e+02  1.0000000000e+02  0.0000000000e+00 0. 9.
       25     2     1     2     0     0  0.0000000000e+00  0.0000000000e+00  0.0000000000e+00  2.0000000000e+02  2.0000000000e+02 0. 9.
       21     1     3     0   101   102 -8.3282906259e+01  2.1480573778e+01 -5.1015120064e+01  1.0000000000e+02  0.0000000000e+00 0. 9.
       21     1     3     0   102   101  8.3282906259e+01 -2.1480573778e+01  5.1015120064e+01  1.0000000000e+02  0.0000000000e+00 0. 9.
#pdf   11  -11  1.000000e+00  1.000000e+00  2.000000e+02  1.000000e+00  1.000000e+00
</event>
<event>
     5  9999  1.000000e+00  2.000000e+02  7.887732e-03  1.158210e-01
       11    -1     0     0     0     0  0.0000000000e+00  0.0000000000e+00  1.0000000000e+02  1.0000000000e+02  0.0000000000e+00 0. 9.
      -11    -1     0     0     0     0  0.0000000000e+00  0.0000000000e+00 -1.0000000000e+02  1.0000000000e+02  0.0000000000e+00 0. 9.
       25     2     1     2     0     0  0.0000000000e+00  0.0000000000e+00  0.0000000000e+00  2.0000000000e+02  2.0000000000e+02 0. 9.
       21     1     3     0   101   102 -8.0934172624e+01  2.9014894609e+01  5.1066579995e+01  1.0000000000e+02  0.0000000000e+00 0. 9.
       21     1     3     0   102   101  8.0934172624e+01 -2.9014894609e+01 -5.1066579995e+01  1.0000000000e+02  0.0000000000e+00 0. 9.
#pdf   11  -11  1.000000e+00  1.000000e+00  2.000000e+02  1.000000e+00  1.000000e+00
</event>
<event>
     5  9999  1.000000e+00  2.000000e+02  7.887732e-03  1.158210e-01
       11    -1     0     0     0     0  0.0000000000e+00  0.0000000000e+00  1.0000000000e+02  1.0000000000e+02  0.0000000000e+00 0. 9.
      -11    -1     0     0     0     0  0.0000000000e+00  0.0000000000e+00 -1.0000000000e+02  1.0000000000e+02  0.0000000000e+00 0. 9.
       25     2     1     2     0     0  0.0000000000e+00  0.0000000000e+00  0.0000000000e+00  2.0000000000e+02  2.0000000000e+02 0. 9.
       21     1     3     0   101   102 -1.8900876416e+01  9.3145195221e+01 -3.1092273605e+01  1.0000000000e+02  0.0000000000e+00 0. 9.
       21     1     3     0   102   101  1.8900876416e+01 -9.3145195221e+01  3.1092273605e+01  1.0000000000e+02  0.0000000000e+00 0. 9.
#pdf   11  -11  1.000000e+00  1.000000e+00  2.000000e+02  1.000000e+00  1.000000e+00
</event>
<event>
     5  9999  1.000000e+00  2.000000e+02  7.887732e-03  1.158210e-01
       11    -1     0     0     0     0  0.0000000000e+00  0.0000000000e+00  1.0000000000e+02  1.0000000000e+02  0.0000000000e+00 0. 9.
      -11    -1     0     0     0     0  0.0000000000e+00  0.0000000000e+00 -1.0000000000e+02  1.0000000000e+02  0.0000000000e+00 0. 9.
       25     2     1     2     0     0  0.0000000000e+00  0.0000000000e+00  0.0000000000e+00  2.0000000000e+02  2.0000000000e+02 0. 9.
       21     1     3     0   101   102 -6.5885261943e+00  8.7804619689e+01 -4.7401899581e+01  1.0000000000e+02  0.0000000000e+00 0. 9.
       21     1     3     0   102   101  6.5885261943e+00 -8.7804619689e+01  4.7401899581e+01  1.0000000000e+02  0.0000000000e+00 0. 9.
#pdf   11  -11  1.000000e+00  1.000000e+00  2.000000e+02  1.000000e+00  1.000000e+00
</event>
<event>
     5  9999  1.000000e+00  2.000000e+02  7.887732e-03  1.158210e-01
       11    -1     0     0     0     0  0.0000000000e+00  0.0000000000e+00  1.0000000000e+02  1.0000000000e+02  0.0000000000e+00 0. 9.
      -11    -1     0     0     0     0  0.0000000000e+00  0.0000000000e+00 -1.0000000000e+02  1.0000000000e+02  0.0000000000e+00 0. 9.
       25     2     1     2     0     0  0.0000000000e+00  0.0000000000e+00  0.0000000000e+00  2.0000000000e+02  2.0000000000e+02 0. 9.
       21     1     3     0   101   102 -9.9105667969e+01 -1.1313462906e+01  7.0761665867e+00  1.0000000000e+02  0.0000000000e+00 0. 9.
       21     1     3     0   102   101  9.9105667969e+01  1.1313462906e+01 -7.0761665867e+00  1.0000000000e+02  0.0000000000e+00 0. 9.
#pdf   11  -11  1.000000e+00  1.000000e+00  2.000000e+02  1.000000e+00  1.000000e+00
</event>
<event>
     5  9999  1.000000e+00  2.000000e+02  7.887732e-03  1.158210e-01
       11    -1     0     0     0     0  0.0000000000e+00  0.0000000000e+00  1.0000000000e+02  1.0000000000e+02  0.0000000000e+00 0. 9.
      -11    -1     0     0     0     0  0.0000000000e+00  0.0000000000e+00 -1.0000000000e+02  1.0000000000e+02  0.0000000000e+00 0. 9.
       25     2     1     2     0     0  0.0000000000e+00  0.0000000000e+00  0.0000000000e+00  2.0000000000e+02  2.0000000000e+02 0. 9.
       21     1     3     0   101   102  7.0505237090e+01  2.7872230200e+01  6.5208514219e+01  1.0000000000e+02  0.0000000000e+00 0. 9.
       21     1     3     0   102   101 -7.0505237090e+01 -2.7872230200e+01 -6.5208514219e+01  1.0000000000e+02  0.0000000000e+00 0. 9.
#pdf   11  -11  1.000000e+00  1.000000e+00  2.000000e+02  1.000000e+00  1.000000e+00
</event>
<event>
     5  9999  1.000000e+00  2.000000e+02  7.887732e-03  1.158210e-01
       11    -1     0     0     0     0  0.0000000000e+00  0.0000000000e+00  1.0000000000e+02  1.0000000000e+02  0.0000000000e+00 0. 9.
      -11    -1     0     0     0     0  0.0000000000e+00  0.0000000000e+00 -1.0000000000e+02  1.0000000000e+02  0.0000000000e+00 0. 9.
       25     2     1     2     0     0  0.0000000000e+00  0.0000000000e+00  0.0000000000e+00  2.0000000000e+02  2.0000000000e+02 0. 9.
       21     1     3     0   101   102 -5.5187677929e+01 -5.5356616219e+01  6.2369585902e+01  1.0000000000e+02  0.0000000000e+00 0. 9.
       21     1     3     0   102   101  5.5187677929e+01  5.5356616219e+01 -6.2369585902e+01  1.0000000000e+02  0.0000000000e+00 0. 9.
#pdf   11  -11  1.000000e+00  1.000000e+00  2.000000e+02  1.000000e+00  1.000000e+00
</event>
<event>
     5  9999  1.000000e+00  2.000000e+02  7.887732e-03  1.158210e-01
       11    -1     0     0     0     0  0.0000000000e+00  0.0000000000e+00  1.0000000000e+02  1.0000000000e+02  0.0000000000e+00 0. 9.
      -11    -1     0     0     0     0  0.0000000000e+00  0.0000000000e+00 -1.0000000000e+02  1.0000000000e+02  0.0000000000e+00 0. 9.
       25     2     1     2     0     0  0.0000000000e+00  0.0000000000e+00  0.0000000000e+00  2.0000000000e+02  2.0000000000e+02 0. 9.
       21     1     3     0   101   102  6.2561407043e+00  9.9730519914e+01 -3.8319839647e+00  1.0000000000e+02  0.0000000000e+00 0. 9.
       21     1     3     0   102   101 -6.2561407043e+00 -9.9730519914e+01  3.8319839647e+00  1.0000000000e+02  0.0000000000e+00 0. 9.
#pdf   11  -11  1.000000e+00  1.000000e+00  2.000000e+02  1.000000e+00  1.000000e+00
</event>
<event>
     5  9999  1.000000e+00  2.000000e+02  7.887732e-03  1.158210e-01
       11    -1     0     0     0     0  0.0000000000e+00  0.0000000000e+00  1.0000000000e+02  1.0000000000e+02  0.0000000000e+00 0. 9.
      -11    -1     0     0     0     0  0.0000000000e+00  0.0000000000e+00 -1.0000000000e+02  1.0000000000e+02  0.0000000000e+00 0. 9.
       25     2     1     2     0     0  0.0000000000e+00  0.0000000000e+00  0.0000000000e+00  2.0000000000e+02  2.0000000000e+02 0. 9.
       21     1     3     0   101   102 -4.3044835293e+01 -3.3132180363e+01 -8.3960709734e+01  1.0000000000e+02  0.0000000000e+00 0. 9.
       21     1     3     0   102   101  4.3044835293e+01  3.3132180363e+01  8.3960709734e+01  1.0000000000e+02  0.0000000000e+00 0. 9.
#pdf   11  -11  1.000000e+00  1.000000e+00  2.000000e+02  1.000000e+00  1.000000e+00
</event>
<event>
     5  9999  1.000000e+00  2.000000e+02  7.887732e-03  1.158210e-01
       11    -1     0     0     0     0  0.0000000000e+00  0.0000000000e+00  1.0000000000e+02  1.0000000000e+02  0.0000000000e+00 0. 9.
      -11    -1     0     0     0     0  0.0000000000e+00  0.0000000000e+00 -1.0000000000e+02  1.0000000000e+02  0.0000000000e+00 0. 9.
       25     2     1     2     0     0  0.0000000000e+00  0.0000000000e+00  0.0000000000e+00  2.0000000000e+02  2.0000000000e+02 0. 9.
       21     1     3     0   101   102 -8.9439009117e+01 -4.4632251264e+00 -4.4505542010e+01  1.0000000000e+02  0.0000000000e+00 0. 9.
       21     1     3     0   102   101  8.9439009117e+01  4.4632251264e+00  4.4505542010e+01  1.0000000000e+02  0.0000000000e+00 0. 9.
#pdf   11  -11  1.000000e+00  1.000000e+00  2.000000e+02  1.000000e+00  1.000000e+00
</event>
<event>
     5  9999  1.000000e+00  2.000000e+02  7.887732e-03  1.158210e-01
       11    -1     0     0     0     0  0.0000000000e+00  0.0000000000e+00  1.0000000000e+02  1.0000000000e+02  0.0000000000e+00 0. 9.
      -11    -1     0     0     0     0  0.0000000000e+00  0.0000000000e+00 -1.0000000000e+02  1.0000000000e+02  0.0000000000e+00 0. 9.
       25     2     1     2     0     0  0.0000000000e+00  0.0000000000e+00  0.0000000000e+00  2.0000000000e+02  2.0000000000e+02 0. 9.
       21     1     3     0   101   102 -4.3463916642e+01 -7.0255939052e+01 -5.6347058291e+01  1.0000000000e+02  0.0000000000e+00 0. 9.
       21     1     3     0   102   101  4.3463916642e+01  7.0255939052e+01  5.6347058291e+01  1.0000000000e+02  0.0000000000e+00 0. 9.
#pdf   11  -11  1.000000e+00  1.000000e+00  2.000000e+02  1.000000e+00  1.000000e+00
</event>
<event>
     5  9999  1.000000e+00  2.000000e+02  7.887732e-03  1.158210e-01
       11    -1     0     0     0     0  0.0000000000e+00  0.0000000000e+00  1.0000000000e+02  1.0000000000e+02  0.0000000000e+00 0. 9.
      -11    -1     0     0     0     0  0.0000000000e+00  0.0000000000e+00 -1.0000000000e+02  1.0000000000e+02  0.0000000000e+00 0. 9.
       25     2     1     2     0     0  0.0000000000e+00  0.0000000000e+00  0.0000000000e+00  2.0000000000e+02  2.0000000000e+02 0. 9.
       21     1     3     0   101   102 -3.4078181456e+01 -3.2202083595e+01  8.8327251518e+01  1.0000000000e+02  0.0000000000e+00 0. 9.
       21     1     3     0   102   101  3.4078181456e+01  3.2202083595e+01 -8.8327251518e+01  1.0000000000e+02  0.0000000000e+00 0. 9.
#pdf   11  -11  1.000000e+00  1.000000e+00  2.000000e+02  1.000000e+00  1.000000e+00
</event>
<event>
     5  9999  1.000000e+00  2.000000e+02  7.887732e-03  1.158210e-01
       11    -1     0     0     0     0  0.0000000000e+00  0.0000000000e+00  1.0000000000e+02  1.0000000000e+02  0.0000000000e+00 0. 9.
      -11    -1     0     0     0     0  0.0000000000e+00  0.0000000000e+00 -1.0000000000e+02  1.0000000000e+02  0.0000000000e+00 0. 9.
       25     2     1     2     0     0  0.0000000000e+00  0.0000000000e+00  0.0000000000e+00  2.0000000000e+02  2.0000000000e+02 0. 9.
       21     1     3     0   101   102 -2.1453435635e+01 -6.9398108805e+01  6.8728833787e+01  1.0000000000e+02  0.0000000000e+00 0. 9.
       21     1     3     0   102   101  2.1453435635e+01  6.9398108805e+01 -6.8728833787e+01  1.0000000000e+02  0.0000000000e+00 0. 9.
#pdf   11  -11  1.000000e+00  1.000000e+00  2.000000e+02  1.000000e+00  1.000000e+00
</event>
<event>
     5  9999  1.000000e+00  2.000000e+02  7.887732e-03  1.158210e-01
       11    -1     0     0     0     0  0.0000000000e+00  0.0000000000e+00  1.0000000000e+02  1.0000000000e+02  0.0000000000e+00 0. 9.
      -11    -1     0     0     0     0  0.0000000000e+00  0.0000000000e+00 -1.0000000000e+02  1.0000000000e+02  0.0000000000e+00 0. 9.
       25     2     1     2     0     0  0.0000000000e+00  0.0000000000e+00  0.0000000000e+00  2.0000000000e+02  2.0000000000e+02 0. 9.
       21     1     3     0   101   102 -2.7896716812e+01 -9.1932895532e+01  2.7750962328e+01  1.0000000000e+02  0.0000000000e+00 0. 9.
       21     1     3     0   102   101  2.7896716812e+01  9.1932895532e+01 -2.7750962328e+01  1.0000000000e+02  0.0000000000e+00 0. 9.
#pdf   11  -11  1.000000e+00  1.000000e+00  2.000000e+02  1.000000e+00  1.000000e+00
</event>
<event>
     5  9999  1.000000e+00  2.000000e+02  7.887732e-03  1.158210e-01
       11    -1     0     0     0     0  0.0000000000e+00  0.0000000000e+00  1.0000000000e+02  1.0000000000e+02  0.0000000000e+00 0. 9.
      -11    -1     0     0     0     0  0.0000000000e+00  0.0000000000e+00 -1.0000000000e+02  1.0000000000e+02  0.0000000000e+00 0. 9.
       25     2     1     2     0     0  0.0000000000e+00  0.0000000000e+00  0.0000000000e+00  2.0000000000e+02  2.0000000000e+02 0. 9.
       21     1     3     0   101   102  2.5090785854e+01  9.1122929016e+01 -3.2665949747e+01  1.0000000000e+02  0.0000000000e+00 0. 9.
       21     1     3     0   102   101 -2.5090785854e+01 -9.1122929016e+01  3.2665949747e+01  1.0000000000e+02  0.0000000000e+00 0. 9.
#pdf   11  -11  1.000000e+00  1.000000e+00  2.000000e+02  1.000000e+00  1.000000e+00
</event>
<event>
     5  9999  1.000000e+00  2.000000e+02  7.887732e-03  1.158210e-01
       11    -1     0     0     0     0  0.0000000000e+00  0.0000000000e+00  1.0000000000e+02  1.0000000000e+02  0.0000000000e+00 0. 9.
      -11    -1     0     0     0     0  0.0000000000e+00  0.0000000000e+00 -1.0000000000e+02  1.0000000000e+02  0.0000000000e+00 0. 9.
       25     2     1     2     0     0  0.0000000000e+00  0.0000000000e+00  0.0000000000e+00  2.0000000000e+02  2.0000000000e+02 0. 9.
       21     1     3     0   101   102  3.5482084486e+01 -7.4992896888e+01  5.5830879421e+01  1.0000000000e+02  0.0000000000e+00 0. 9.
       21     1     3     0   102   101 -3.5482084486e+01  7.4992896888e+01 -5.5830879421e+01  1.0000000000e+02  0.0000000000e+00 0. 9.
#pdf   11  -11  1.000000e+00  1.000000e+00  2.000000e+02  1.000000e+00  1.000000e+00
</event>
<event>
     5  9999  1.000000e+00  2.000000e+02  7.887732e-03  1.158210e-01
       11    -1     0     0     0     0  0.0000000000e+00  0.0000000000e+00  1.0000000000e+02  1.0000000000e+02  0.0000000000e+00 0. 9.
      -11    -1     0     0     0     0  0.0000000000e+00  0.0000000000e+00 -1.0000000000e+02  1.0000000000e+02  0.0000000000e+00 0. 9.
       25     2     1     2     0     0  0.0000000000e+00  0.0000000000e+00  0.0000000000e+00  2.0000000000e+02  2.0000000000e+02 0. 9.
       21     1     3     0   101   102 -9.3353633433e+01  2.3452638250e+01 -2.7112227574e+01  1.0000000000e+02  0.0000000000e+00 0. 9.
       21     1     3     0   102   101  9.3353633433e+01 -2.3452638250e+01  2.7112227574e+01  1.0000000000e+02  0.0000000000e+00 0. 9.
#pdf   11  -11  1.000000e+00  1.000000e+00  2.000000e+02  1.000000e+00  1.000000e+00
</event>
<event>
     5  9999  1.000000e+00  2.000000e+02  7.887732e-03  1.158210e-01
       11    -1     0     0     0     0  0.0000000000e+00  0.0000000000e+00  1.0000000000e+02  1.0000000000e+02  0.0000000000e+00 0. 9.
      -11    -1     0     0     0     0  0.0000000000e+00  0.0000000000e+00 -1.0000000000e+02  1.0000000000e+02  0.0000000000e+00 0. 9.
       25     2     1     2     0     0  0.0000000000e+00  0.0000000000e+00  0.0000000000e+00  2.0000000000e+02  2.0000000000e+02 0. 9.
       21     1     3     0   101   102  3.2513120977e+01 -6.0353043007e+01  7.2803895253e+01  1.0000000000e+02  0.0000000000e+00 0. 9.
       21     1     3     0   102   101 -3.2513120977e+01  6.0353043007e+01 -7.2803895253e+01  1.0000000000e+02  0.0000000000e+00 0. 9.
#pdf   11  -11  1.000000e+00  1.000000e+00  2.000000e+02  1.000000e+00  1.000000e+00
</event>
<event>
     5  9999  1.000000e+00  2.000000e+02  7.887732e-03  1.158210e-01
       11    -1     0     0     0     0  0.0000000000e+00  0.0000000000e+00  1.0000000000e+02  1.0000000000e+02  0.0000000000e+00 0. 9.
      -11    -1     0     0     0     0  0.0000000000e+00  0.0000000000e+00 -1.0000000000e+02  1.0000000000e+02  0.0000000000e+00 0. 9.
       25     2     1     2     0     0  0.0000000000e+00  0.0000000000e+00  0.0000000000e+00  2.0000000000e+02  2.0000000000e+02 0. 9.
       21     1     3     0   101   102 -6.6202917055e+01 -7.4199670263e+01 -1.0563271571e+01  1.0000000000e+02  0.0000000000e+00 0. 9.
       21     1     3     0   102   101  6.6202917055e+01  7.4199670263e+01  1.0563271571e+01  1.0000000000e+02  0.0000000000e+00 0. 9.
#pdf   11  -11  1.000000e+00  1.000000e+00  2.000000e+02  1.000000e+00  1.000000e+00
</event>
<event>
     5  9999  1.000000e+00  2.000000e+02  7.887732e-03  1.158210e-01
       11    -1     0     0     0     0  0.0000000000e+00  0.0000000000e+00  1.0000000000e+02  1.0000000000e+02  0.0000000000e+00 0. 9.
      -11    -1     0     0     0     0  0.0000000000e+00  0.0000000000e+00 -1.0000000000e+02  1.0000000000e+02  0.0000000000e+00 0. 9.
       25     2     1     2     0     0  0.0000000000e+00  0.0000000000e+00  0.0000000000e+00  2.0000000000e+02  2.0000000000e+02 0. 9.
       21     1     3     0   101   102 -9.9739722607e+01 -6.9234524408e+00  2.0133406626e+00  1.0000000000e+02  0.0000000000e+00 0. 9.
       21     1     3     0   102   101  9.9739722607e+01  6.9234524408e+00 -2.0133406626e+00  1.0000000000e+02  0.0000000000e+00 0. 9.
#pdf   11  -11  1.000000e+00  1.000000e+00  2.000000e+02  1.000000e+00  1.000000e+00
</event>
<event>
     5  9999  1.000000e+00  2.000000e+02  7.887732e-03  1.158210e-01
       11    -1     0     0     0     0  0.0000000000e+00  0.0000000000e+00  1.0000000000e+02  1.0000000000e+02  0.0000000000e+00 0. 9.
      -11    -1     0     0     0     0  0.0000000000e+00  0.0000000000e+00 -1.0000000000e+02  1.0000000000e+02  0.0000000000e+00 0. 9.
       25     2     1     2     0     0  0.0000000000e+00  0.0000000000e+00  0.0000000000e+00  2.0000000000e+02  2.0000000000e+02 0. 9.
       21     1     3     0   101   102  4.7748901205e+01 -8.7832969667e+01  2.3263433305e+00  1.0000000000e+02  0.0000000000e+00 0. 9.
       21     1     3     0   102   101 -4.7748901205e+01  8.7832969667e+01 -2.3263433305e+00  1.0000000000e+02  0.0000000000e+00 0. 9.
#pdf   11  -11  1.000000e+00  1.000000e+00  2.000000e+02  1.000000e+00  1.000000e+00
</event>
<event>
     5  9999  1.000000e+00  2.000000e+02  7.887732e-03  1.158210e-01
       11    -1     0     0     0     0  0.0000000000e+00  0.0000000000e+00  1.0000000000e+02  1.0000000000e+02  0.0000000000e+00 0. 9.
      -11    -1     0     0     0     0  0.0000000000e+00  0.0000000000e+00 -1.0000000000e+02  1.0000000000e+02  0.0000000000e+00 0. 9.
       25     2     1     2     0     0  0.0000000000e+00  0.0000000000e+00  0.0000000000e+00  2.0000000000e+02  2.0000000000e+02 0. 9.
       21     1     3     0   101   102  7.8651160681e+01 -2.0939737641e+01 -5.8099245357e+01  1.0000000000e+02  0.0000000000e+00 0. 9.
       21     1     3     0   102   101 -7.8651160681e+01  2.0939737641e+01  5.8099245357e+01  1.0000000000e+02  0.0000000000e+00 0. 9.
#pdf   11  -11  1.000000e+00  1.000000e+00  2.000000e+02  1.000000e+00  1.000000e+00
</event>
<event>
     5  9999  1.000000e+00  2.000000e+02  7.887732e-03  1.158210e-01
       11    -1     0     0     0     0  0.0000000000e+00  0.0000000000e+00  1.0000000000e+02  1.0000000000e+02  0.0000000000e+00 0. 9.
      -11    -1     0     0     0     0  0.0000000000e+00  0.0000000000e+00 -1.0000000000e+02  1.0000000000e+02  0.0000000000e+00 0. 9.
       25     2     1     2     0     0  0.0000000000e+00  0.0000000000e+00  0.0000000000e+00  2.0000000000e+02  2.0000000000e+02 0. 9.
       21     1     3     0   101   102  9.3586601514e+01  3.2964635982e+01 -1.2445111156e+01  1.0000000000e+02  0.0000000000e+00 0. 9.
       21     1     3     0   102   101 -9.3586601514e+01 -3.2964635982e+01  1.2445111156e+01  1.0000000000e+02  0.0000000000e+00 0. 9.
#pdf   11  -11  1.000000e+00  1.000000e+00  2.000000e+02  1.000000e+00  1.000000e+00
</event>
<event>
     5  9999  1.000000e+00  2.000000e+02  7.887732e-03  1.158210e-01
       11    -1     0     0     0     0  0.0000000000e+00  0.0000000000e+00  1.0000000000e+02  1.0000000000e+02  0.0000000000e+00 0. 9.
      -11    -1     0     0     0     0  0.0000000000e+00  0.0000000000e+00 -1.0000000000e+02  1.0000000000e+02  0.0000000000e+00 0. 9.
       25     2     1     2     0     0  0.0000000000e+00  0.0000000000e+00  0.0000000000e+00  2.0000000000e+02  2.0000000000e+02 0. 9.
       21     1     3     0   101   102  9.2515360043e+01 -3.9532840265e+00  3.7752876731e+01  1.0000000000e+02  0.0000000000e+00 0. 9.
       21     1     3     0   102   101 -9.2515360043e+01  3.9532840265e+00 -3.7752876731e+01  1.0000000000e+02  0.0000000000e+00 0. 9.
#pdf   11  -11  1.000000e+00  1.000000e+00  2.000000e+02  1.000000e+00  1.000000e+00
</event>
<event>
     5  9999  1.000000e+00  2.000000e+02  7.887732e-03  1.158210e-01
       11    -1     0     0     0     0  0.0000000000e+00  0.0000000000e+00  1.0000000000e+02  1.0000000000e+02  0.0000000000e+00 0. 9.
      -11    -1     0     0     0     0  0.0000000000e+00  0.0000000000e+00 -1.0000000000e+02  1.0000000000e+02  0.0000000000e+00 0. 9.
       25     2     1     2     0     0  0.0000000000e+00  0.0000000000e+00  0.0000000000e+00  2.0000000000e+02  2.0000000000e+02 0. 9.
       21     1     3     0   101   102  8.3129574731e+01  3.7891225472e+01  4.0666064936e+01  1.0000000000e+02  0.0000000000e+00 0. 9.
       21     1     3     0   102   101 -8.3129574731e+01 -3.7891225472e+01 -4.0666064936e+01  1.0000000000e+02  0.0000000000e+00 0. 9.
#pdf   11  -11  1.000000e+00  1.000000e+00  2.000000e+02  1.000000e+00  1.000000e+00
</event>
<event>
     5  9999  1.000000e+00  2.000000e+02  7.887732e-03  1.158210e-01
       11    -1     0     0     0     0  0.0000000000e+00  0.0000000000e+00  1.0000000000e+02  1.0000000000e+02  0.0000000000e+00 0. 9.
      -11    -1     0     0     0     0  0.0000000000e+00  0.0000000000e+00 -1.0000000000e+02  1.0000000000e+02  0.0000000000e+00 0. 9.
       25     2     1     2     0     0  0.0000000000e+00  0.0000000000e+00  0.0000000000e+00  2.0000000000e+02  2.0000000000e+02 0. 9.
       21     1     3     0   101   102  2.6183586169e+01 -8.0600855734e+01 -5.3084101859e+01  1.0000000000e+02  0.0000000000e+00 0. 9.
       21     1     3     0   102   101 -2.6183586169e+01  8.0600855734e+01  5.3084101859e+01  1.0000000000e+02  0.0000000000e+00 0. 9.
#pdf   11  -11  1.000000e+00  1.000000e+00  2.000000e+02  1.000000e+00  1.000000e+00
</event>
<event>
     5  9999  1.000000e+00  2.000000e+02  7.887732e-03  1.158210e-01
       11    -1     0     0     0     0  0.0000000000e+00  0.0000000000e+00  1.0000000000e+02  1.0000000000e+02  0.0000000000e+00 0. 9.
      -11    -1     0     0     0     0  0.0000000000e+00  0.0000000000e+00 -1.0000000000e+02  1.0000000000e+02  0.0000000000e+00 0. 9.
       25     2     1     2     0     0  0.0000000000e+00  0.0000000000e+00  0.0000000000e+00  2.0000000000e+02  2.0000000000e+02 0. 9.
       21     1     3     0   101   102  2.9109199268e+01 -3.9728903242e+01  8.7030274992e+01  1.0000000000e+02  0.0000000000e+00 0. 9.
       21     1     3     0   102   101 -2.9109199268e+01  3.9728903242e+01 -8.7030274992e+01  1.0000000000e+02  0.0000000000e+00 0. 9.
#pdf   11  -11  1.000000e+00  1.000000e+00  2.000000e+02  1.000000e+00  1.000000e+00
</event>
<event>
     5  9999  1.000000e+00  2.000000e+02  7.887732e-03  1.158210e-01
       11    -1     0     0     0     0  0.0000000000e+00  0.0000000000e+00  1.0000000000e+02  1.0000000000e+02  0.0000000000e+00 0. 9.
      -11    -1     0     0     0     0  0.0000000000e+00  0.0000000000e+00 -1.0000000000e+02  1.0000000000e+02  0.0000000000e+00 0. 9.
       25     2     1     2     0     0  0.0000000000e+00  0.0000000000e+00  0.0000000000e+00  2.0000000000e+02  2.0000000000e+02 0. 9.
       21     1     3     0   101   102 -3.2311437997e+01 -7.5862243820e+01 -5.6576416793e+01  1.0000000000e+02  0.0000000000e+00 0. 9.
       21     1     3     0   102   101  3.2311437997e+01  7.5862243820e+01  5.6576416793e+01  1.0000000000e+02  0.0000000000e+00 0. 9.
#pdf   11  -11  1.000000e+00  1.000000e+00  2.000000e+02  1.000000e+00  1.000000e+00
</event>
<event>
     5  9999  1.000000e+00  2.000000e+02  7.887732e-03  1.158210e-01
       11    -1     0     0     0     0  0.0000000000e+00  0.0000000000e+00  1.0000000000e+02  1.0000000000e+02  0.0000000000e+00 0. 9.
      -11    -1     0     0     0     0  0.0000000000e+00  0.0000000000e+00 -1.0000000000e+02  1.0000000000e+02  0.0000000000e+00 0. 9.
       25     2     1     2     0     0  0.0000000000e+00  0.0000000000e+00  0.0000000000e+00  2.0000000000e+02  2.0000000000e+02 0. 9.
       21     1     3     0   101   102 -7.5935031666e+01 -5.6318505906e+01 -3.2589827529e+01  1.0000000000e+02  0.0000000000e+00 0. 9.
       21     1     3     0   102   101  7.5935031666e+01  5.6318505906e+01  3.2589827529e+01  1.0000000000e+02  0.0000000000e+00 0. 9.
#pdf   11  -11  1.000000e+00  1.000000e+00  2.000000e+02  1.000000e+00  1.000000e+00
</event>
<event>
     5  9999  1.000000e+00  2.000000e+02  7.887732e-03  1.158210e-01
       11    -1     0     0     0     0  0.0000000000e+00  0.0000000000e+00  1.0000000000e+02  1.0000000000e+02  0.0000000000e+00 0. 9.
      -11    -1     0     0     0     0  0.0000000000e+00  0.0000000000e+00 -1.0000000000e+02  1.0000000000e+02  0.0000000000e+00 0. 9.
       25     2     1     2     0     0  0.0000000000e+00  0.0000000000e+00  0.0000000000e+00  2.0000000000e+02  2.0000000000e+02 0. 9.
       21     1     3     0   101   102 -9.5561048934e+01  6.6633975420e+00  2.8699913933e+01  1.0000000000e+02  0.0000000000e+00 0. 9.
       21     1     3     0   102   101  9.5561048934e+01 -6.6633975420e+00 -2.8699913933e+01  1.0000000000e+02  0.0000000000e+00 0. 9.
#pdf   11  -11  1.000000e+00  1.000000e+00  2.000000e+02  1.000000e+00  1.000000e+00
</event>
<event>
     5  9999  1.000000e+00  2.000000e+02  7.887732e-03  1.158210e-01
       11    -1     0     0     0     0  0.0000000000e+00  0.0000000000e+00  1.0000000000e+02  1.0000000000e+02  0.0000000000e+00 0. 9.
      -11    -1     0     0     0     0  0.0000000000e+00  0.0000000000e+00 -1.0000000000e+02  1.0000000000e+02  0.0000000000e+00 0. 9.
       25     2     1     2     0     0  0.0000000000e+00  0.0000000000e+00  0.0000000000e+00  2.0000000000e+02  2.0000000000e+02 0. 9.
       21     1     3     0   101   102  8.2868411678e+01  7.2362287976e+00 -5.5501921938e+01  1.0000000000e+02  0.0000000000e+00 0. 9.
       21     1     3     0   102   101 -8.2868411678e+01 -7.2362287976e+00  5.5501921938e+01  1.0000000000e+02  0.0000000000e+00 0. 9.
#pdf   11  -11  1.000000e+00  1.000000e+00  2.000000e+02  1.000000e+00  1.000000e+00
</event>
<event>
     5  9999  1.000000e+00  2.000000e+02  7.887732e-03  1.158210e-01
       11    -1     0     0     0     0  0.0000000000e+00  0.0000000000e+00  1.0000000000e+02  1.0000000000e+02  0.0000000000e+00 0. 9.
      -11    -1     0     0     0     0  0.0000000000e+00  0.0000000000e+00 -1.0000000000e+02  1.0000000000e+02  0.0000000000e+00 0. 9.
       25     2     1     2     0     0  0.0000000000e+00  0.0000000000e+00  0.0000000000e+00  2.0000000000e+02  2.0000000000e+02 0. 9.
       21     1     3     0   101   102  9.6126362887e+01  2.0098954215e+01 -1.8861452691e+01  1.0000000000e+02  0.0000000000e+00 0. 9.
       21     1     3     0   102   101 -9.6126362887e+01 -2.0098954215e+01  1.8861452691e+01  1.0000000000e+02  0.0000000000e+00 0. 9.
#pdf   11  -11  1.000000e+00  1.000000e+00  2.000000e+02  1.000000e+00  1.000000e+00
</event>
<event>
     5  9999  1.000000e+00  2.000000e+02  7.887732e-03  1.158210e-01
       11    -1     0     0     0     0  0.0000000000e+00  0.0000000000e+00  1.0000000000e+02  1.0000000000e+02  0.0000000000e+00 0. 9.
      -11    -1     0     0     0     0  0.0000000000e+00  0.0000000000e+00 -1.0000000000e+02  1.0000000000e+02  0.0000000000e+00 0. 9.
       25     2     1     2     0     0  0.0000000000e+00  0.0000000000e+00  0.0000000000e+00  2.0000000000e+02  2.0000000000e+02 0. 9.
       21     1     3     0   101   102  2.8130363608e+01 -8.5187472750e+01 -4.4178921780e+01  1.0000000000e+02  0.0000000000e+00 0. 9.
       21     1     3     0   102   101 -2.8130363608e+01  8.5187472750e+01  4.4178921780e+01  1.0000000000e+02  0.0000000000e+00 0. 9.
#pdf   11  -11  1.000000e+00  1.000000e+00  2.000000e+02  1.000000e+00  1.000000e+00
</event>
<event>
     5  9999  1.000000e+00  2.000000e+02  7.887732e-03  1.158210e-01
       11    -1     0     0     0     0  0.0000000000e+00  0.0000000000e+00  1.0000000000e+02  1.0000000000e+02  0.0000000000e+00 0. 9.
      -11    -1     0     0     0     0  0.0000000000e+00  0.0000000000e+00 -1.0000000000e+02  1.0000000000e+02  0.0000000000e+00 0. 9.
       25     2     1     2     0     0  0.0000000000e+00  0.0000000000e+00  0.0000000000e+00  2.0000000000e+02  2.0000000000e+02 0. 9.
       21     1     3     0   101   102  7.6201495428e+01  6.1239549693e+01 -2.1048744568e+01  1.0000000000e+02  0.0000000000e+00 0. 9.
       21     1     3     0   102   101 -7.6201495428e+01 -6.1239549693e+01  2.1048744568e+01  1.0000000000e+02  0.0000000000e+00 0. 9.
#pdf   11  -11  1.000000e+00  1.000000e+00  2.000000e+02  1.000000e+00  1.000000e+00
</event>
<event>
     5  9999  1.000000e+00  2.000000e+02  7.887732e-03  1.158210e-01
       11    -1     0     0     0     0  0.0000000000e+00  0.0000000000e+00  1.0000000000e+02  1.0000000000e+02  0.0000000000e+00 0. 9.
      -11    -1     0     0     0     0  0.0000000000e+00  0.0000000000e+00 -1.0000000000e+02  1.0000000000e+02  0.0000000000e+00 0. 9.
       25     2     1     2     0     0  0.0000000000e+00  0.0000000000e+00  0.0000000000e+00  2.0000000000e+02  2.0000000000e+02 0. 9.
       21     1     3     0   101   102  7.9984915065e+00  2.9477568211e+01  9.5221305946e+01  1.0000000000e+02  0.0000000000e+00 0. 9.
       21     1     3     0   102   101 -7.9984915065e+00 -2.9477568211e+01 -9.5221305946e+01  1.0000000000e+02  0.0000000000e+00 0. 9.
#pdf   11  -11  1.000000e+00  1.000000e+00  2.000000e+02  1.000000e+00  1.000000e+00
</event>
<event>
     5  9999  1.000000e+00  2.000000e+02  7.887732e-03  1.158210e-01
       11    -1     0     0     0     0  0.0000000000e+00  0.0000000000e+00  1.0000000000e+02  1.0000000000e+02  0.0000000000e+00 0. 9.
      -11    -1     0     0     0     0  0.0000000000e+00  0.0000000000e+00 -1.0000000000e+02  1.0000000000e+02  0.0000000000e+00 0. 9.
       25     2     1     2     0     0  0.0000000000e+00  0.0000000000e+00  0.0000000000e+00  2.0000000000e+02  2.0000000000e+02 0. 9.
       21     1     3     0   101   102 -7.2715800153e+01  6.5130856134e+01 -2.1688337592e+01  1.0000000000e+02  0.0000000000e+00 0. 9.
       21     1     3     0   102   101  7.2715800153e+01 -6.5130856134e+01  2.1688337592e+01  1.0000000000e+02  0.0000000000e+00 0. 9.
#pdf   11  -11  1.000000e+00  1.000000e+00  2.000000e+02  1.000000e+00  1.000000e+00
</event>
<event>
     5  9999  1.000000e+00  2.000000e+02  7.887732e-03  1.158210e-01
       11    -1     0     0     0     0  0.0000000000e+00  0.0000000000e+00  1.0000000000e+02  1.0000000000e+02  0.0000000000e+00 0. 9.
      -11    -1     0     0     0     0  0.0000000000e+00  0.0000000000e+00 -1.0000000000e+02  1.0000000000e+02  0.0000000000e+00 0. 9.
       25     2     1     2     0     0  0.0000000000e+00  0.0000000000e+00  0.0000000000e+00  2.0000000000e+02  2.0000000000e+02 0. 9.
       21     1     3     0   101   102  4.6447735217e+01 -8.5863617489e+01 -2.1680569296e+01  1.0000000000e+02  0.0000000000e+00 0. 9.
       21     1     3     0   102   101 -4.6447735217e+01  8.5863617489e+01  2.1680569296e+01  1.0000000000e+02  0.0000000000e+00 0. 9.
#pdf   11  -11  1.000000e+00  1.000000e+00  2.000000e+02  1.000000e+00  1.000000e+00
</event>
<event>
     5  9999  1.000000e+00  2.000000e+02  7.887732e-03  1.158210e-01
       11    -1     0     0     0     0  0.0000000000e+00  0.0000000000e+00  1.0000000000e+02  1.0000000000e+02  0.0000000000e+00 0. 9.
      -11    -1     0     0     0     0  0.0000000000e+00  0.0000000000e+00 -1.0000000000e+02  1.0000000000e+02  0.0000000000e+00 0. 9.
       25     2     1     2     0     0  0.0000000000e+00  0.0000000000e+00  0.0000000000e+00  2.0000000000e+02  2.0000000000e+02 0. 9.
       21     1     3     0   101   102 -2.0851225387e-02 -7.8090458630e+01 -6.2465028906e+01  1.0000000000e+02  0.0000000000e+00 0. 9.
       21     1     3     0   102   101  2.0851225387e-02  7.8090458630e+01  6.2465028906e+01  1.0000000000e+02  0.0000000000e+00 0. 9.
#pdf   11  -11  1.000000e+00  1.000000e+00  2.000000e+02  1.000000e+00  1.000000e+00
</event>
<event>
     5  9999  1.000000e+00  2.000000e+02  7.887732e-03  1.158210e-01
       11    -1     0     0     0     0  0.0000000000e+00  0.0000000000e+00  1.0000000000e+02  1.0000000000e+02  0.0000000000e+00 0. 9.
      -11    -1     0     0     0     0  0.0000000000e+00  0.0000000000e+00 -1.0000000000e+02  1.0000000000e+02  0.0000000000e+00 0. 9.
       25     2     1     2     0     0  0.0000000000e+00  0.0000000000e+00  0.0000000000e+00  2.0000000000e+02  2.0000000000e+02 0. 9.
       21     1     3     0   101   102 -5.6340230678e+01 -7.6049177251e+01 -3.2284687493e+01  1.0000000000e+02  0.0000000000e+00 0. 9.
       21     1     3     0   102   101  5.6340230678e+01  7.6049177251e+01  3.2284687493e+01  1.0000000000e+02  0.0000000000e+00 0. 9.
#pdf   11  -11  1.000000e+00  1.000000e+00  2.000000e+02  1.000000e+00  1.000000e+00
</event>
<event>
     5  9999  1.000000e+00  2.000000e+02  7.887732e-03  1.158210e-01
       11    -1     0     0     0     0  0.0000000000e+00  0.0000000000e+00  1.0000000000e+02  1.0000000000e+02  0.0000000000e+00 0. 9.
      -11    -1     0     0     0     0  0.0000000000e+00  0.0000000000e+00 -1.0000000000e+02  1.0000000000e+02  0.0000000000e+00 0. 9.
       25     2     1     2     0     0  0.0000000000e+00  0.0000000000e+00  0.0000000000e+00  2.0000000000e+02  2.0000000000e+02 0. 9.
       21     1     3     0   101   102  7.2972612030e+01  6.2951079429e+01  2.6686316574e+01  1.0000000000e+02  0.0000000000e+00 0. 9.
       21     1     3     0   102   101 -7.2972612030e+01 -6.2951079429e+01 -2.6686316574e+01  1.0000000000e+02  0.0000000000e+00 0. 9.
#pdf   11  -11  1.000000e+00  1.000000e+00  2.000000e+02  1.000000e+00  1.000000e+00
</event>
<event>
     5  9999  1.000000e+00  2.000000e+02  7.887732e-03  1.158210e-01
       11    -1     0     0     0     0  0.0000000000e+00  0.0000000000e+00  1.0000000000e+02  1.0000000000e+02  0.0000000000e+00 0. 9.
      -11    -1     0     0     0     0  0.0000000000e+00  0.0000000000e+00 -1.0000000000e+02  1.0000000000e+02  0.0000000000e+00 0. 9.
       25     2     1     2     0     0  0.0000000000e+00  0.0000000000e+00  0.0000000000e+00  2.0000000000e+02  2.0000000000e+02 0. 9.
       21     1     3     0   101   102  5.9391589349e+01  8.0097310759e+01 -7.5538019445e+00  1.0000000000e+02  0.0000000000e+00 0. 9.
       21     1     3     0   102   101 -5.9391589349e+01 -8.0097310759e+01  7.5538019445e+00  1.0000000000e+02  0.0000000000e+00 0. 9.
#pdf   11  -11  1.000000e+00  1.000000e+00  2.000000e+02  1.000000e+00  1.000000e+00
</event>
<event>
     5  9999  1.000000e+00  2.000000e+02  7.887732e-03  1.158210e-01
       11    -1     0     0     0     0  0.0000000000e+00  0.0000000000e+00  1.0000000000e+02  1.0000000000e+02  0.0000000000e+00 0. 9.
      -11    -1     0     0     0     0  0.0000000000e+00  0.0000000000e+00 -1.0000000000e+02  1.0000000000e+02  0.0000000000e+00 0. 9.
       25     2     1     2     0     0  0.0000000000e+00  0.0000000000e+00  0.0000000000e+00  2.0000000000e+02  2.0000000000e+02 0. 9.
       21     1     3     0   101   102 -1.4449702529e+01 -7.7011101036e+01 -6.2132893173e+01  1.0000000000e+02  0.0000000000e+00 0. 9.
       21     1     3     0   102   101  1.4449702529e+01  7.7011101036e+01  6.2132893173e+01  1.0000000000e+02  0.0000000000e+00 0. 9.
#pdf   11  -11  1.000000e+00  1.000000e+00  2.000000e+02  1.000000e+00  1.000000e+00
</event>
<event>
     5  9999  1.000000e+00  2.000000e+02  7.887732e-03  1.158210e-01
       11    -1     0     0     0     0  0.0000000000e+00  0.0000000000e+00  1.0000000000e+02  1.0000000000e+02  0.0000000000e+00 0. 9.
      -11    -1     0     0     0     0  0.0000000000e+00  0.0000000000e+00 -1.0000000000e+02  1.0000000000e+02  0.0000000000e+00 0. 9.
       25     2     1     2     0     0  0.0000000000e+00  0.0000000000e+00  0.0000000000e+00  2.0000000000e+02  2.0000000000e+02 0. 9.
       21     1     3     0   101   102  1.3552824989e+01 -5.4132373689e+01 -8.2981968243e+01  1.0000000000e+02  0.0000000000e+00 0. 9.
       21     1     3     0   102   101 -1.3552824989e+01  5.4132373689e+01  8.2981968243e+01  1.0000000000e+02  0.0000000000e+00 0. 9.
#pdf   11  -11  1.000000e+00  1.000000e+00  2.000000e+02  1.000000e+00  1.000000e+00
</event>
<event>
     5  9999  1.000000e+00  2.000000e+02  7.887732e-03  1.158210e-01
       11    -1     0     0     0     0  0.0000000000e+00  0.0000000000e+00  1.0000000000e+02  1.0000000000e+02  0.0000000000e+00 0. 9.
      -11    -1     0     0     0     0  0.0000000000e+00  0.0000000000e+00 -1.0000000000e+02  1.0000000000e+02  0.0000000000e+00 0. 9.
       25     2     1     2     0     0  0.0000000000e+00  0.0000000000e+00  0.0000000000e+00  2.0000000000e+02  2.0000000000e+02 0. 9.
       21     1     3     0   101   102  8.9742585910e+01  3.9953820057e+01  1.8707232211e+01  1.0000000000e+02  0.0000000000e+00 0. 9.
       21     1     3     0   102   101 -8.9742585910e+01 -3.9953820057e+01 -1.8707232211e+01  1.0000000000e+02  0.0000000000e+00 0. 9.
#pdf   11  -11  1.000000e+00  1.000000e+00  2.000000e+02  1.000000e+00  1.000000e+00
</event>
<event>
     5  9999  1.000000e+00  2.000000e+02  7.887732e-03  1.158210e-01
       11    -1     0     0     0     0  0.0000000000e+00  0.0000000000e+00  1.0000000000e+02  1.0000000000e+02  0.0000000000e+00 0. 9.
      -11    -1     0     0     0     0  0.0000000000e+00  0.0000000000e+00 -1.0000000000e+02  1.0000000000e+02  0.0000000000e+00 0. 9.
       25     2     1     2     0     0  0.0000000000e+00  0.0000000000e+00  0.0000000000e+00  2.0000000000e+02  2.0000000000e+02 0. 9.
       21     1     3     0   101   102  2.7425046158e+01 -9.3014788449e+01  2.4415486336e+01  1.0000000000e+02  0.0000000000e+00 0. 9.
       21     1     3     0   102   101 -2.7425046158e+01  9.3014788449e+01 -2.4415486336e+01  1.0000000000e+02  0.0000000000e+00 0. 9.
#pdf   11  -11  1.000000e+00  1.000000e+00  2.000000e+02  1.000000e+00  1.000000e+00
</event>
<event>
     5  9999  1.000000e+00  2.000000e+02  7.887732e-03  1.158210e-01
       11    -1     0     0     0     0  0.0000000000e+00  0.0000000000e+00  1.0000000000e+02  1.0000000000e+02  0.0000000000e+00 0. 9.
      -11    -1     0     0     0     0  0.0000000000e+00  0.0000000000e+00 -1.0000000000e+02  1.0000000000e+02  0.0000000000e+00 0. 9.
       25     2     1     2     0     0  0.0000000000e+00  0.0000000000e+00  0.0000000000e+00  2.0000000000e+02  2.0000000000e+02 0. 9.
       21     1     3     0   101   102  6.4834837337e+01 -6.4699395651e+01 -4.0130189009e+01  1.0000000000e+02  0.0000000000e+00 0. 9.
       21     1     3     0   102   101 -6.4834837337e+01  6.4699395651e+01  4.0130189009e+01  1.0000000000e+02  0.0000000000e+00 0. 9.
#pdf   11  -11  1.000000e+00  1.000000e+00  2.000000e+02  1.000000e+00  1.000000e+00
</event>
<event>
     5  9999  1.000000e+00  2.000000e+02  7.887732e-03  1.158210e-01
       11    -1     0     0     0     0  0.0000000000e+00  0.0000000000e+00  1.0000000000e+02  1.0000000000e+02  0.0000000000e+00 0. 9.
      -11    -1     0     0     0     0  0.0000000000e+00  0.0000000000e+00 -1.0000000000e+02  1.0000000000e+02  0.0000000000e+00 0. 9.
       25     2     1     2     0     0  0.0000000000e+00  0.0000000000e+00  0.0000000000e+00  2.0000000000e+02  2.0000000000e+02 0. 9.
       21     1     3     0   101   102 -8.4566246034e+01  2.2408936213e+01 -4.8439545926e+01  1.0000000000e+02  0.0000000000e+00 0. 9.
       21     1     3     0   102   101  8.4566246034e+01 -2.2408936213e+01  4.8439545926e+01  1.0000000000e+02  0.0000000000e+00 0. 9.
#pdf   11  -11  1.000000e+00  1.000000e+00  2.000000e+02  1.000000e+00  1.000000e+00
</event>
<event>
     5  9999  1.000000e+00  2.000000e+02  7.887732e-03  1.158210e-01
       11    -1     0     0     0     0  0.0000000000e+00  0.0000000000e+00  1.0000000000e+02  1.0000000000e+02  0.0000000000e+00 0. 9.
      -11    -1     0     0     0     0  0.0000000000e+00  0.0000000000e+00 -1.0000000000e+02  1.0000000000e+02  0.0000000000e+00 0. 9.
       25     2     1     2     0     0  0.0000000000e+00  0.0000000000e+00  0.0000000000e+00  2.0000000000e+02  2.0000000000e+02 0. 9.
       21     1     3     0   101   102 -2.7190753201e+01  2.1547357891e+01  9.3788988204e+01  1.0000000000e+02  0.0000000000e+00 0. 9.
       21     1     3     0   102   101  2.7190753201e+01 -2.1547357891e+01 -9.3788988204e+01  1.0000000000e+02  0.0000000000e+00 0. 9.
#pdf   11  -11  1.000000e+00  1.000000e+00  2.000000e+02  1.000000e+00  1.000000e+00
</event>
<event>
     5  9999  1.000000e+00  2.000000e+02  7.887732e-03  1.158210e-01
       11    -1     0     0     0     0  0.0000000000e+00  0.0000000000e+00  1.0000000000e+02  1.0000000000e+02  0.0000000000e+00 0. 9.
      -11    -1     0     0     0     0  0.0000000000e+00  0.0000000000e+00 -1.0000000000e+02  1.0000000000e+02  0.0000000000e+00 0. 9.
       25     2     1     2     0     0  0.0000000000e+00  0.0000000000e+00  0.0000000000e+00  2.0000000000e+02  2.0000000000e+02 0. 9.
       21     1     3     0   101   102  7.7775948718e+00  8.4051752367e+01  5.3617272796e+01  1.0000000000e+02  0.0000000000e+00 0. 9.
       21     1     3     0   102   101 -7.7775948718e+00 -8.4051752367e+01 -5.3617272796e+01  1.0000000000e+02  0.0000000000e+00 0. 9.
#pdf   11  -11  1.000000e+00  1.000000e+00  2.000000e+02  1.000000e+00  1.000000e+00
</event>
<event>
     5  9999  1.000000e+00  2.000000e+02  7.887732e-03  1.158210e-01
       11    -1     0     0     0     0  0.0000000000e+00  0.0000000000e+00  1.0000000000e+02  1.0000000000e+02  0.0000000000e+00 0. 9.
      -11    -1     0     0     0     0  0.0000000000e+00  0.0000000000e+00 -1.0000000000e+02  1.0000000000e+02  0.0000000000e+00 0. 9.
       25     2     1     2     0     0  0.0000000000e+00  0.0000000000e+00  0.0000000000e+00  2.0000000000e+02  2.0000000000e+02 0. 9.
       21     1     3     0   101   102  5.9204645536e+00 -4.4040888864e+01 -8.9584307820e+01  1.0000000000e+02  0.0000000000e+00 0. 9.
       21     1     3     0   102   101 -5.9204645536e+00  4.4040888864e+01  8.9584307820e+01  1.0000000000e+02  0.0000000000e+00 0. 9.
#pdf   11  -11  1.000000e+00  1.000000e+00  2.000000e+02  1.000000e+00  1.000000e+00
</event>
<event>
     5  9999  1.000000e+00  2.000000e+02  7.887732e-03  1.158210e-01
       11    -1     0     0     0     0  0.0000000000e+00  0.0000000000e+00  1.0000000000e+02  1.0000000000e+02  0.0000000000e+00 0. 9.
      -11    -1     0     0     0     0  0.0000000000e+00  0.0000000000e+00 -1.0000000000e+02  1.0000000000e+02  0.0000000000e+00 0. 9.
       25     2     1     2     0     0  0.0000000000e+00  0.0000000000e+00  0.0000000000e+00  2.0000000000e+02  2.0000000000e+02 0. 9.
       21     1     3     0   101   102  4.6160393869e+01  5.0019496642e+01  7.3261640669e+01  1.0000000000e+02  0.0000000000e+00 0. 9.
       21     1     3     0   102   101 -4.6160393869e+01 -5.0019496642e+01 -7.3261640669e+01  1.0000000000e+02  0.0000000000e+00 0. 9.
#pdf   11  -11  1.000000e+00  1.000000e+00  2.000000e+02  1.000000e+00  1.000000e+00
</event>
<event>
     5  9999  1.000000e+00  2.000000e+02  7.887732e-03  1.158210e-01
       11    -1     0     0     0     0  0.0000000000e+00  0.0000000000e+00  1.0000000000e+02  1.0000000000e+02  0.0000000000e+00 0. 9.
      -11    -1     0     0     0     0  0.0000000000e+00  0.0000000000e+00 -1.0000000000e+02  1.0000000000e+02  0.0000000000e+00 0. 9.
       25     2     1     2     0     0  0.0000000000e+00  0.0000000000e+00  0.0000000000e+00  2.0000000000e+02  2.0000000000e+02 0. 9.
       21     1     3     0   101   102 -1.9190611776e+01  9.7634214933e+01  9.9639597560e+00  1.0000000000e+02  0.0000000000e+00 0. 9.
       21     1     3     0   102   101  1.9190611776e+01 -9.7634214933e+01 -9.9639597560e+00  1.0000000000e+02  0.0000000000e+00 0. 9.
#pdf   11  -11  1.000000e+00  1.000000e+00  2.000000e+02  1.000000e+00  1.000000e+00
</event>
<event>
     5  9999  1.000000e+00  2.000000e+02  7.887732e-03  1.158210e-01
       11    -1     0     0     0     0  0.0000000000e+00  0.0000000000e+00  1.0000000000e+02  1.0000000000e+02  0.0000000000e+00 0. 9.
      -11    -1     0     0     0     0  0.0000000000e+00  0.0000000000e+00 -1.0000000000e+02  1.0000000000e+02  0.0000000000e+00 0. 9.
       25     2     1     2     0     0  0.0000000000e+00  0.0000000000e+00  0.0000000000e+00  2.0000000000e+02  2.0000000000e+02 0. 9.
       21     1     3     0   101   102 -1.0788659684e+01  9.9380047897e+01  2.6853123250e+00  1.0000000000e+02  0.0000000000e+00 0. 9.
       21     1     3     0   102   101  1.0788659684e+01 -9.9380047897e+01 -2.6853123250e+00  1.0000000000e+02  0.0000000000e+00 0. 9.
#pdf   11  -11  1.000000e+00  1.000000e+00  2.000000e+02  1.000000e+00  1.000000e+00
</event>
<event>
     5  9999  1.000000e+00  2.000000e+02  7.887732e-03  1.158210e-01
       11    -1     0     0     0     0  0.0000000000e+00  0.0000000000e+00  1.0000000000e+02  1.0000000000e+02  0.0000000000e+00 0. 9.
      -11    -1     0     0     0     0  0.0000000000e+00  0.0000000000e+00 -1.0000000000e+02  1.0000000000e+02  0.0000000000e+00 0. 9.
       25     2     1     2     0     0  0.0000000000e+00  0.0000000000e+00  0.0000000000e+00  2.0000000000e+02  2.0000000000e+02 0. 9.
       21     1     3     0   101   102 -4.2332977543e+01 -8.8077254567e+01 -2.1220655981e+01  1.0000000000e+02  0.0000000000e+00 0. 9.
       21     1     3     0   102   101  4.2332977543e+01  8.8077254567e+01  2.1220655981e+01  1.0000000000e+02  0.0000000000e+00 0. 9.
#pdf   11  -11  1.000000e+00  1.000000e+00  2.000000e+02  1.000000e+00  1.000000e+00
</event>
<event>
     5  9999  1.000000e+00  2.000000e+02  7.887732e-03  1.158210e-01
       11    -1     0     0     0     0  0.0000000000e+00  0.0000000000e+00  1.0000000000e+02  1.0000000000e+02  0.0000000000e+00 0. 9.
      -11    -1     0     0     0     0  0.0000000000e+00  0.0000000000e+00 -1.0000000000e+02  1.0000000000e+02  0.0000000000e+00 0. 9.
       25     2     1     2     0     0  0.0000000000e+00  0.0000000000e+00  0.0000000000e+00  2.0000000000e+02  2.0000000000e+02 0. 9.
       21     1     3     0   101   102  7.7683127975e+01  2.2359579853e+01  5.8867485226e+01  1.0000000000e+02  0.0000000000e+00 0. 9.
       21     1     3     0   102   101 -7.7683127975e+01 -2.2359579853e+01 -5.8867485226e+01  1.0000000000e+02  0.0000000000e+00 0. 9.
#pdf   11  -11  1.000000e+00  1.000000e+00  2.000000e+02  1.000000e+00  1.000000e+00
</event>
<event>
     5  9999  1.000000e+00  2.000000e+02  7.887732e-03  1.158210e-01
       11    -1     0     0     0     0  0.0000000000e+00  0.0000000000e+00  1.0000000000e+02  1.0000000000e+02  0.0000000000e+00 0. 9.
      -11    -1     0     0     0     0  0.0000000000e+00  0.0000000000e+00 -1.0000000000e+02  1.0000000000e+02  0.0000000000e+00 0. 9.
       25     2     1     2     0     0  0.0000000000e+00  0.0000000000e+00  0.0000000000e+00  2.0000000000e+02  2.0000000000e+02 0. 9.
       21     1     3     0   101   102  5.8769188619e+00  9.7982371487e+00  9.9345137644e+01  1.0000000000e+02  0.0000000000e+00 0. 9.
       21     1     3     0   102   101 -5.8769188619e+00 -9.7982371487e+00 -9.9345137644e+01  1.0000000000e+02  0.0000000000e+00 0. 9.
#pdf   11  -11  1.000000e+00  1.000000e+00  2.000000e+02  1.000000e+00  1.000000e+00
</event>
</LesHouchesEvents>
