<LesHouchesEvents version="1.0">
<!--
  File written by Pythia8::LHAup on 08 Jun 2015 at 18:38:04
-->
<init>
  11  -11  2.000000e+02  2.000000e+02  0  0  0  0  3  1
  6.688968e-11  4.171428e-19  1.000000e+00   9999
</init>
<event>
     5  9999  1.000000e+00  4.000000e+02  7.950764e-03  1.063124e-01
       11    -1     0     0     0     0  0.0000000000e+00  0.0000000000e+00  2.0000000000e+02  2.0000000000e+02  0.0000000000e+00 0. 9.
      -11    -1     0     0     0     0  0.0000000000e+00  0.0000000000e+00 -2.0000000000e+02  2.0000000000e+02  0.0000000000e+00 0. 9.
       25     2     1     2     0     0  0.0000000000e+00  0.0000000000e+00  0.0000000000e+00  4.0000000000e+02  4.0000000000e+02 0. 9.
       21     1     3     0   101   102 -3.1905499903e+01 -1.6773577080e+02  1.0414773290e+02  2.0000000000e+02  0.0000000000e+00 0. 9.
       21     1     3     0   102   101  3.1905499903e+01  1.6773577080e+02 -1.0414773290e+02  2.0000000000e+02  0.0000000000e+00 0. 9.
#pdf   11  -11  1.000000e+00  1.000000e+00  4.000000e+02  1.000000e+00  1.000000e+00
</event>
<event>
     5  9999  1.000000e+00  4.000000e+02  7.950764e-03  1.063124e-01
       11    -1     0     0     0     0  0.0000000000e+00  0.0000000000e+00  2.0000000000e+02  2.0000000000e+02  0.0000000000e+00 0. 9.
      -11    -1     0     0     0     0  0.0000000000e+00  0.0000000000e+00 -2.0000000000e+02  2.0000000000e+02  0.0000000000e+00 0. 9.
       25     2     1     2     0     0  0.0000000000e+00  0.0000000000e+00  0.0000000000e+00  4.0000000000e+02  4.0000000000e+02 0. 9.
       21     1     3     0   101   102  9.1318574929e+01  1.3962194179e+01  1.7738651303e+02  2.0000000000e+02  0.0000000000e+00 0. 9.
       21     1     3     0   102   101 -9.1318574929e+01 -1.3962194179e+01 -1.7738651303e+02  2.0000000000e+02  0.0000000000e+00 0. 9.
#pdf   11  -11  1.000000e+00  1.000000e+00  4.000000e+02  1.000000e+00  1.000000e+00
</event>
<event>
     5  9999  1.000000e+00  4.000000e+02  7.950764e-03  1.063124e-01
       11    -1     0     0     0     0  0.0000000000e+00  0.0000000000e+00  2.0000000000e+02  2.0000000000e+02  0.0000000000e+00 0. 9.
      -11    -1     0     0     0     0  0.0000000000e+00  0.0000000000e+00 -2.0000000000e+02  2.0000000000e+02  0.0000000000e+00 0. 9.
       25     2     1     2     0     0  0.0000000000e+00  0.0000000000e+00  0.0000000000e+00  4.0000000000e+02  4.0000000000e+02 0. 9.
       21     1     3     0   101   102 -1.8560329172e+02  6.5393884393e+01  3.5707954111e+01  2.0000000000e+02  0.0000000000e+00 0. 9.
       21     1     3     0   102   101  1.8560329172e+02 -6.5393884393e+01 -3.5707954111e+01  2.0000000000e+02  0.0000000000e+00 0. 9.
#pdf   11  -11  1.000000e+00  1.000000e+00  4.000000e+02  1.000000e+00  1.000000e+00
</event>
<event>
     5  9999  1.000000e+00  4.000000e+02  7.950764e-03  1.063124e-01
       11    -1     0     0     0     0  0.0000000000e+00  0.0000000000e+00  2.0000000000e+02  2.0000000000e+02  0.0000000000e+00 0. 9.
      -11    -1     0     0     0     0  0.0000000000e+00  0.0000000000e+00 -2.0000000000e+02  2.0000000000e+02  0.0000000000e+00 0. 9.
       25     2     1     2     0     0  0.0000000000e+00  0.0000000000e+00  0.0000000000e+00  4.0000000000e+02  4.0000000000e+02 0. 9.
       21     1     3     0   101   102  1.9041930080e+02 -4.3802643890e+01 -4.2682763144e+01  2.0000000000e+02  0.0000000000e+00 0. 9.
       21     1     3     0   102   101 -1.9041930080e+02  4.3802643890e+01  4.2682763144e+01  2.0000000000e+02  0.0000000000e+00 0. 9.
#pdf   11  -11  1.000000e+00  1.000000e+00  4.000000e+02  1.000000e+00  1.000000e+00
</event>
<event>
     5  9999  1.000000e+00  4.000000e+02  7.950764e-03  1.063124e-01
       11    -1     0     0     0     0  0.0000000000e+00  0.0000000000e+00  2.0000000000e+02  2.0000000000e+02  0.0000000000e+00 0. 9.
      -11    -1     0     0     0     0  0.0000000000e+00  0.0000000000e+00 -2.0000000000e+02  2.0000000000e+02  0.0000000000e+00 0. 9.
       25     2     1     2     0     0  0.0000000000e+00  0.0000000000e+00  0.0000000000e+00  4.0000000000e+02  4.0000000000e+02 0. 9.
       21     1     3     0   101   102  1.8738400584e+01 -1.1942535392e+02 -1.5933128125e+02  2.0000000000e+02  0.0000000000e+00 0. 9.
       21     1     3     0   102   101 -1.8738400584e+01  1.1942535392e+02  1.5933128125e+02  2.0000000000e+02  0.0000000000e+00 0. 9.
#pdf   11  -11  1.000000e+00  1.000000e+00  4.000000e+02  1.000000e+00  1.000000e+00
</event>
<event>
     5  9999  1.000000e+00  4.000000e+02  7.950764e-03  1.063124e-01
       11    -1     0     0     0     0  0.0000000000e+00  0.0000000000e+00  2.0000000000e+02  2.0000000000e+02  0.0000000000e+00 0. 9.
      -11    -1     0     0     0     0  0.0000000000e+00  0.0000000000e+00 -2.0000000000e+02  2.0000000000e+02  0.0000000000e+00 0. 9.
       25     2     1     2     0     0  0.0000000000e+00  0.0000000000e+00  0.0000000000e+00  4.0000000000e+02  4.0000000000e+02 0. 9.
       21     1     3     0   101   102 -9.9394074440e+00  9.5152140226e+00  1.9952611078e+02  2.0000000000e+02  0.0000000000e+00 0. 9.
       21     1     3     0   102   101  9.9394074440e+00 -9.5152140226e+00 -1.9952611078e+02  2.0000000000e+02  0.0000000000e+00 0. 9.
#pdf   11  -11  1.000000e+00  1.000000e+00  4.000000e+02  1.000000e+00  1.000000e+00
</event>
<event>
     5  9999  1.000000e+00  4.000000e+02  7.950764e-03  1.063124e-01
       11    -1     0     0     0     0  0.0000000000e+00  0.0000000000e+00  2.0000000000e+02  2.0000000000e+02  0.0000000000e+00 0. 9.
      -11    -1     0     0     0     0  0.0000000000e+00  0.0000000000e+00 -2.0000000000e+02  2.0000000000e+02  0.0000000000e+00 0. 9.
       25     2     1     2     0     0  0.0000000000e+00  0.0000000000e+00  0.0000000000e+00  4.0000000000e+02  4.0000000000e+02 0. 9.
       21     1     3     0   101   102  1.6198432543e+01  1.8904578083e+02 -6.3240046907e+01  2.0000000000e+02  0.0000000000e+00 0. 9.
       21     1     3     0   102   101 -1.6198432543e+01 -1.8904578083e+02  6.3240046907e+01  2.0000000000e+02  0.0000000000e+00 0. 9.
#pdf   11  -11  1.000000e+00  1.000000e+00  4.000000e+02  1.000000e+00  1.000000e+00
</event>
<event>
     5  9999  1.000000e+00  4.000000e+02  7.950764e-03  1.063124e-01
       11    -1     0     0     0     0  0.0000000000e+00  0.0000000000e+00  2.0000000000e+02  2.0000000000e+02  0.0000000000e+00 0. 9.
      -11    -1     0     0     0     0  0.0000000000e+00  0.0000000000e+00 -2.0000000000e+02  2.0000000000e+02  0.0000000000e+00 0. 9.
       25     2     1     2     0     0  0.0000000000e+00  0.0000000000e+00  0.0000000000e+00  4.0000000000e+02  4.0000000000e+02 0. 9.
       21     1     3     0   101   102 -3.5793761129e+01 -5.4955953345e+01  1.8894086338e+02  2.0000000000e+02  0.0000000000e+00 0. 9.
       21     1     3     0   102   101  3.5793761129e+01  5.4955953345e+01 -1.8894086338e+02  2.0000000000e+02  0.0000000000e+00 0. 9.
#pdf   11  -11  1.000000e+00  1.000000e+00  4.000000e+02  1.000000e+00  1.000000e+00
</event>
<event>
     5  9999  1.000000e+00  4.000000e+02  7.950764e-03  1.063124e-01
       11    -1     0     0     0     0  0.0000000000e+00  0.0000000000e+00  2.0000000000e+02  2.0000000000e+02  0.0000000000e+00 0. 9.
      -11    -1     0     0     0     0  0.0000000000e+00  0.0000000000e+00 -2.0000000000e+02  2.0000000000e+02  0.0000000000e+00 0. 9.
       25     2     1     2     0     0  0.0000000000e+00  0.0000000000e+00  0.0000000000e+00  4.0000000000e+02  4.0000000000e+02 0. 9.
       21     1     3     0   101   102 -3.9759632787e+01 -1.9056133109e+02  4.5886280032e+01  2.0000000000e+02  0.0000000000e+00 0. 9.
       21     1     3     0   102   101  3.9759632787e+01  1.9056133109e+02 -4.5886280032e+01  2.0000000000e+02  0.0000000000e+00 0. 9.
#pdf   11  -11  1.000000e+00  1.000000e+00  4.000000e+02  1.000000e+00  1.000000e+00
</event>
<event>
     5  9999  1.000000e+00  4.000000e+02  7.950764e-03  1.063124e-01
       11    -1     0     0     0     0  0.0000000000e+00  0.0000000000e+00  2.0000000000e+02  2.0000000000e+02  0.0000000000e+00 0. 9.
      -11    -1     0     0     0     0  0.0000000000e+00  0.0000000000e+00 -2.0000000000e+02  2.0000000000e+02  0.0000000000e+00 0. 9.
       25     2     1     2     0     0  0.0000000000e+00  0.0000000000e+00  0.0000000000e+00  4.0000000000e+02  4.0000000000e+02 0. 9.
       21     1     3     0   101   102  1.6114188885e+01  1.3434058994e+02  1.4728522944e+02  2.0000000000e+02  0.0000000000e+00 0. 9.
       21     1     3     0   102   101 -1.6114188885e+01 -1.3434058994e+02 -1.4728522944e+02  2.0000000000e+02  0.0000000000e+00 0. 9.
#pdf   11  -11  1.000000e+00  1.000000e+00  4.000000e+02  1.000000e+00  1.000000e+00
</event>
<event>
     5  9999  1.000000e+00  4.000000e+02  7.950764e-03  1.063124e-01
       11    -1     0     0     0     0  0.0000000000e+00  0.0000000000e+00  2.0000000000e+02  2.0000000000e+02  0.0000000000e+00 0. 9.
      -11    -1     0     0     0     0  0.0000000000e+00  0.0000000000e+00 -2.0000000000e+02  2.0000000000e+02  0.0000000000e+00 0. 9.
       25     2     1     2     0     0  0.0000000000e+00  0.0000000000e+00  0.0000000000e+00  4.0000000000e+02  4.0000000000e+02 0. 9.
       21     1     3     0   101   102  1.7422556104e+02 -9.4902491004e+01  2.5277877336e+01  2.0000000000e+02  0.0000000000e+00 0. 9.
       21     1     3     0   102   101 -1.7422556104e+02  9.4902491004e+01 -2.5277877336e+01  2.0000000000e+02  0.0000000000e+00 0. 9.
#pdf   11  -11  1.000000e+00  1.000000e+00  4.000000e+02  1.000000e+00  1.000000e+00
</event>
<event>
     5  9999  1.000000e+00  4.000000e+02  7.950764e-03  1.063124e-01
       11    -1     0     0     0     0  0.0000000000e+00  0.0000000000e+00  2.0000000000e+02  2.0000000000e+02  0.0000000000e+00 0. 9.
      -11    -1     0     0     0     0  0.0000000000e+00  0.0000000000e+00 -2.0000000000e+02  2.0000000000e+02  0.0000000000e+00 0. 9.
       25     2     1     2     0     0  0.0000000000e+00  0.0000000000e+00  0.0000000000e+00  4.0000000000e+02  4.0000000000e+02 0. 9.
       21     1     3     0   101   102 -1.9122655263e+02  3.6654567765e+01  4.5703919227e+01  2.0000000000e+02  0.0000000000e+00 0. 9.
       21     1     3     0   102   101  1.9122655263e+02 -3.6654567765e+01 -4.5703919227e+01  2.0000000000e+02  0.0000000000e+00 0. 9.
#pdf   11  -11  1.000000e+00  1.000000e+00  4.000000e+02  1.000000e+00  1.000000e+00
</event>
<event>
     5  9999  1.000000e+00  4.000000e+02  7.950764e-03  1.063124e-01
       11    -1     0     0     0     0  0.0000000000e+00  0.0000000000e+00  2.0000000000e+02  2.0000000000e+02  0.0000000000e+00 0. 9.
      -11    -1     0     0     0     0  0.0000000000e+00  0.0000000000e+00 -2.0000000000e+02  2.0000000000e+02  0.0000000000e+00 0. 9.
       25     2     1     2     0     0  0.0000000000e+00  0.0000000000e+00  0.0000000000e+00  4.0000000000e+02  4.0000000000e+02 0. 9.
       21     1     3     0   101   102 -6.0347456945e+00  1.7425477161e+02 -9.7973753710e+01  2.0000000000e+02  0.0000000000e+00 0. 9.
       21     1     3     0   102   101  6.0347456945e+00 -1.7425477161e+02  9.7973753710e+01  2.0000000000e+02  0.0000000000e+00 0. 9.
#pdf   11  -11  1.000000e+00  1.000000e+00  4.000000e+02  1.000000e+00  1.000000e+00
</event>
<event>
     5  9999  1.000000e+00  4.000000e+02  7.950764e-03  1.063124e-01
       11    -1     0     0     0     0  0.0000000000e+00  0.0000000000e+00  2.0000000000e+02  2.0000000000e+02  0.0000000000e+00 0. 9.
      -11    -1     0     0     0     0  0.0000000000e+00  0.0000000000e+00 -2.0000000000e+02  2.0000000000e+02  0.0000000000e+00 0. 9.
       25     2     1     2     0     0  0.0000000000e+00  0.0000000000e+00  0.0000000000e+00  4.0000000000e+02  4.0000000000e+02 0. 9.
       21     1     3     0   101   102  1.1191808504e+02  1.6188880535e+02  3.5585909320e+01  2.0000000000e+02  0.0000000000e+00 0. 9.
       21     1     3     0   102   101 -1.1191808504e+02 -1.6188880535e+02 -3.5585909320e+01  2.0000000000e+02  0.0000000000e+00 0. 9.
#pdf   11  -11  1.000000e+00  1.000000e+00  4.000000e+02  1.000000e+00  1.000000e+00
</event>
<event>
     5  9999  1.000000e+00  4.000000e+02  7.950764e-03  1.063124e-01
       11    -1     0     0     0     0  0.0000000000e+00  0.0000000000e+00  2.0000000000e+02  2.0000000000e+02  0.0000000000e+00 0. 9.
      -11    -1     0     0     0     0  0.0000000000e+00  0.0000000000e+00 -2.0000000000e+02  2.0000000000e+02  0.0000000000e+00 0. 9.
       25     2     1     2     0     0  0.0000000000e+00  0.0000000000e+00  0.0000000000e+00  4.0000000000e+02  4.0000000000e+02 0. 9.
       21     1     3     0   101   102  1.0553076638e+02 -5.9794489576e+01  1.5902162231e+02  2.0000000000e+02  0.0000000000e+00 0. 9.
       21     1     3     0   102   101 -1.0553076638e+02  5.9794489576e+01 -1.5902162231e+02  2.0000000000e+02  0.0000000000e+00 0. 9.
#pdf   11  -11  1.000000e+00  1.000000e+00  4.000000e+02  1.000000e+00  1.000000e+00
</event>
<event>
     5  9999  1.000000e+00  4.000000e+02  7.950764e-03  1.063124e-01
       11    -1     0     0     0     0  0.0000000000e+00  0.0000000000e+00  2.0000000000e+02  2.0000000000e+02  0.0000000000e+00 0. 9.
      -11    -1     0     0     0     0  0.0000000000e+00  0.0000000000e+00 -2.0000000000e+02  2.0000000000e+02  0.0000000000e+00 0. 9.
       25     2     1     2     0     0  0.0000000000e+00  0.0000000000e+00  0.0000000000e+00  4.0000000000e+02  4.0000000000e+02 0. 9.
       21     1     3     0   101   102 -1.0493095040e+01  1.5460429711e+02  1.2644131553e+02  2.0000000000e+02  0.0000000000e+00 0. 9.
       21     1     3     0   102   101  1.0493095040e+01 -1.5460429711e+02 -1.2644131553e+02  2.0000000000e+02  0.0000000000e+00 0. 9.
#pdf   11  -11  1.000000e+00  1.000000e+00  4.000000e+02  1.000000e+00  1.000000e+00
</event>
<event>
     5  9999  1.000000e+00  4.000000e+02  7.950764e-03  1.063124e-01
       11    -1     0     0     0     0  0.0000000000e+00  0.0000000000e+00  2.0000000000e+02  2.0000000000e+02  0.0000000000e+00 0. 9.
      -11    -1     0     0     0     0  0.0000000000e+00  0.0000000000e+00 -2.0000000000e+02  2.0000000000e+02  0.0000000000e+00 0. 9.
       25     2     1     2     0     0  0.0000000000e+00  0.0000000000e+00  0.0000000000e+00  4.0000000000e+02  4.0000000000e+02 0. 9.
       21     1     3     0   101   102  1.8159653714e+01  9.9339012982e+01 -1.7263252149e+02  2.0000000000e+02  0.0000000000e+00 0. 9.
       21     1     3     0   102   101 -1.8159653714e+01 -9.9339012982e+01  1.7263252149e+02  2.0000000000e+02  0.0000000000e+00 0. 9.
#pdf   11  -11  1.000000e+00  1.000000e+00  4.000000e+02  1.000000e+00  1.000000e+00
</event>
<event>
     5  9999  1.000000e+00  4.000000e+02  7.950764e-03  1.063124e-01
       11    -1     0     0     0     0  0.0000000000e+00  0.0000000000e+00  2.0000000000e+02  2.0000000000e+02  0.0000000000e+00 0. 9.
      -11    -1     0     0     0     0  0.0000000000e+00  0.0000000000e+00 -2.0000000000e+02  2.0000000000e+02  0.0000000000e+00 0. 9.
       25     2     1     2     0     0  0.0000000000e+00  0.0000000000e+00  0.0000000000e+00  4.0000000000e+02  4.0000000000e+02 0. 9.
       21     1     3     0   101   102 -6.6147288453e+01  1.7341105205e+02  7.4519415306e+01  2.0000000000e+02  0.0000000000e+00 0. 9.
       21     1     3     0   102   101  6.6147288453e+01 -1.7341105205e+02 -7.4519415306e+01  2.0000000000e+02  0.0000000000e+00 0. 9.
#pdf   11  -11  1.000000e+00  1.000000e+00  4.000000e+02  1.000000e+00  1.000000e+00
</event>
<event>
     5  9999  1.000000e+00  4.000000e+02  7.950764e-03  1.063124e-01
       11    -1     0     0     0     0  0.0000000000e+00  0.0000000000e+00  2.0000000000e+02  2.0000000000e+02  0.0000000000e+00 0. 9.
      -11    -1     0     0     0     0  0.0000000000e+00  0.0000000000e+00 -2.0000000000e+02  2.0000000000e+02  0.0000000000e+00 0. 9.
       25     2     1     2     0     0  0.0000000000e+00  0.0000000000e+00  0.0000000000e+00  4.0000000000e+02  4.0000000000e+02 0. 9.
       21     1     3     0   101   102 -2.9000518099e+01  1.9351021353e+02  4.1385591812e+01  2.0000000000e+02  0.0000000000e+00 0. 9.
       21     1     3     0   102   101  2.9000518099e+01 -1.9351021353e+02 -4.1385591812e+01  2.0000000000e+02  0.0000000000e+00 0. 9.
#pdf   11  -11  1.000000e+00  1.000000e+00  4.000000e+02  1.000000e+00  1.000000e+00
</event>
<event>
     5  9999  1.000000e+00  4.000000e+02  7.950764e-03  1.063124e-01
       11    -1     0     0     0     0  0.0000000000e+00  0.0000000000e+00  2.0000000000e+02  2.0000000000e+02  0.0000000000e+00 0. 9.
      -11    -1     0     0     0     0  0.0000000000e+00  0.0000000000e+00 -2.0000000000e+02  2.0000000000e+02  0.0000000000e+00 0. 9.
       25     2     1     2     0     0  0.0000000000e+00  0.0000000000e+00  0.0000000000e+00  4.0000000000e+02  4.0000000000e+02 0. 9.
       21     1     3     0   101   102 -1.7213323143e+02 -7.3274158037e+01 -7.0718091043e+01  2.0000000000e+02  0.0000000000e+00 0. 9.
       21     1     3     0   102   101  1.7213323143e+02  7.3274158037e+01  7.0718091043e+01  2.0000000000e+02  0.0000000000e+00 0. 9.
#pdf   11  -11  1.000000e+00  1.000000e+00  4.000000e+02  1.000000e+00  1.000000e+00
</event>
<event>
     5  9999  1.000000e+00  4.000000e+02  7.950764e-03  1.063124e-01
       11    -1     0     0     0     0  0.0000000000e+00  0.0000000000e+00  2.0000000000e+02  2.0000000000e+02  0.0000000000e+00 0. 9.
      -11    -1     0     0     0     0  0.0000000000e+00  0.0000000000e+00 -2.0000000000e+02  2.0000000000e+02  0.0000000000e+00 0. 9.
       25     2     1     2     0     0  0.0000000000e+00  0.0000000000e+00  0.0000000000e+00  4.0000000000e+02  4.0000000000e+02 0. 9.
       21     1     3     0   101   102  1.0417264759e+02  1.0441331833e+02  1.3507745352e+02  2.0000000000e+02  0.0000000000e+00 0. 9.
       21     1     3     0   102   101 -1.0417264759e+02 -1.0441331833e+02 -1.3507745352e+02  2.0000000000e+02  0.0000000000e+00 0. 9.
#pdf   11  -11  1.000000e+00  1.000000e+00  4.000000e+02  1.000000e+00  1.000000e+00
</event>
<event>
     5  9999  1.000000e+00  4.000000e+02  7.950764e-03  1.063124e-01
       11    -1     0     0     0     0  0.0000000000e+00  0.0000000000e+00  2.0000000000e+02  2.0000000000e+02  0.0000000000e+00 0. 9.
      -11    -1     0     0     0     0  0.0000000000e+00  0.0000000000e+00 -2.0000000000e+02  2.0000000000e+02  0.0000000000e+00 0. 9.
       25     2     1     2     0     0  0.0000000000e+00  0.0000000000e+00  0.0000000000e+00  4.0000000000e+02  4.0000000000e+02 0. 9.
       21     1     3     0   101   102 -4.2756409030e+01 -3.3517764703e+01 -1.9247973643e+02  2.0000000000e+02  0.0000000000e+00 0. 9.
       21     1     3     0   102   101  4.2756409030e+01  3.3517764703e+01  1.9247973643e+02  2.0000000000e+02  0.0000000000e+00 0. 9.
#pdf   11  -11  1.000000e+00  1.000000e+00  4.000000e+02  1.000000e+00  1.000000e+00
</event>
<event>
     5  9999  1.000000e+00  4.000000e+02  7.950764e-03  1.063124e-01
       11    -1     0     0     0     0  0.0000000000e+00  0.0000000000e+00  2.0000000000e+02  2.0000000000e+02  0.0000000000e+00 0. 9.
      -11    -1     0     0     0     0  0.0000000000e+00  0.0000000000e+00 -2.0000000000e+02  2.0000000000e+02  0.0000000000e+00 0. 9.
       25     2     1     2     0     0  0.0000000000e+00  0.0000000000e+00  0.0000000000e+00  4.0000000000e+02  4.0000000000e+02 0. 9.
       21     1     3     0   101   102  1.8149042435e+02  8.1620639933e+01 -1.9982417451e+01  2.0000000000e+02  0.0000000000e+00 0. 9.
       21     1     3     0   102   101 -1.8149042435e+02 -8.1620639933e+01  1.9982417451e+01  2.0000000000e+02  0.0000000000e+00 0. 9.
#pdf   11  -11  1.000000e+00  1.000000e+00  4.000000e+02  1.000000e+00  1.000000e+00
</event>
<event>
     5  9999  1.000000e+00  4.000000e+02  7.950764e-03  1.063124e-01
       11    -1     0     0     0     0  0.0000000000e+00  0.0000000000e+00  2.0000000000e+02  2.0000000000e+02  0.0000000000e+00 0. 9.
      -11    -1     0     0     0     0  0.0000000000e+00  0.0000000000e+00 -2.0000000000e+02  2.0000000000e+02  0.0000000000e+00 0. 9.
       25     2     1     2     0     0  0.0000000000e+00  0.0000000000e+00  0.0000000000e+00  4.0000000000e+02  4.0000000000e+02 0. 9.
       21     1     3     0   101   102 -2.6471256400e+01 -1.5320136622e+02 -1.2581181968e+02  2.0000000000e+02  0.0000000000e+00 0. 9.
       21     1     3     0   102   101  2.6471256400e+01  1.5320136622e+02  1.2581181968e+02  2.0000000000e+02  0.0000000000e+00 0. 9.
#pdf   11  -11  1.000000e+00  1.000000e+00  4.000000e+02  1.000000e+00  1.000000e+00
</event>
<event>
     5  9999  1.000000e+00  4.000000e+02  7.950764e-03  1.063124e-01
       11    -1     0     0     0     0  0.0000000000e+00  0.0000000000e+00  2.0000000000e+02  2.0000000000e+02  0.0000000000e+00 0. 9.
      -11    -1     0     0     0     0  0.0000000000e+00  0.0000000000e+00 -2.0000000000e+02  2.0000000000e+02  0.0000000000e+00 0. 9.
       25     2     1     2     0     0  0.0000000000e+00  0.0000000000e+00  0.0000000000e+00  4.0000000000e+02  4.0000000000e+02 0. 9.
       21     1     3     0   101   102 -6.7444565741e+01 -1.6218214057e+02  9.5646138610e+01  2.0000000000e+02  0.0000000000e+00 0. 9.
       21     1     3     0   102   101  6.7444565741e+01  1.6218214057e+02 -9.5646138610e+01  2.0000000000e+02  0.0000000000e+00 0. 9.
#pdf   11  -11  1.000000e+00  1.000000e+00  4.000000e+02  1.000000e+00  1.000000e+00
</event>
<event>
     5  9999  1.000000e+00  4.000000e+02  7.950764e-03  1.063124e-01
       11    -1     0     0     0     0  0.0000000000e+00  0.0000000000e+00  2.0000000000e+02  2.0000000000e+02  0.0000000000e+00 0. 9.
      -11    -1     0     0     0     0  0.0000000000e+00  0.0000000000e+00 -2.0000000000e+02  2.0000000000e+02  0.0000000000e+00 0. 9.
       25     2     1     2     0     0  0.0000000000e+00  0.0000000000e+00  0.0000000000e+00  4.0000000000e+02  4.0000000000e+02 0. 9.
       21     1     3     0   101   102  7.7917955392e+01 -1.8400923921e+02  8.3301927459e+00  2.0000000000e+02  0.0000000000e+00 0. 9.
       21     1     3     0   102   101 -7.7917955392e+01  1.8400923921e+02 -8.3301927459e+00  2.0000000000e+02  0.0000000000e+00 0. 9.
#pdf   11  -11  1.000000e+00  1.000000e+00  4.000000e+02  1.000000e+00  1.000000e+00
</event>
<event>
     5  9999  1.000000e+00  4.000000e+02  7.950764e-03  1.063124e-01
       11    -1     0     0     0     0  0.0000000000e+00  0.0000000000e+00  2.0000000000e+02  2.0000000000e+02  0.0000000000e+00 0. 9.
      -11    -1     0     0     0     0  0.0000000000e+00  0.0000000000e+00 -2.0000000000e+02  2.0000000000e+02  0.0000000000e+00 0. 9.
       25     2     1     2     0     0  0.0000000000e+00  0.0000000000e+00  0.0000000000e+00  4.0000000000e+02  4.0000000000e+02 0. 9.
       21     1     3     0   101   102 -7.1803453016e+01 -1.7219103278e+02  7.2072965558e+01  2.0000000000e+02  0.0000000000e+00 0. 9.
       21     1     3     0   102   101  7.1803453016e+01  1.7219103278e+02 -7.2072965558e+01  2.0000000000e+02  0.0000000000e+00 0. 9.
#pdf   11  -11  1.000000e+00  1.000000e+00  4.000000e+02  1.000000e+00  1.000000e+00
</event>
<event>
     5  9999  1.000000e+00  4.000000e+02  7.950764e-03  1.063124e-01
       11    -1     0     0     0     0  0.0000000000e+00  0.0000000000e+00  2.0000000000e+02  2.0000000000e+02  0.0000000000e+00 0. 9.
      -11    -1     0     0     0     0  0.0000000000e+00  0.0000000000e+00 -2.0000000000e+02  2.0000000000e+02  0.0000000000e+00 0. 9.
       25     2     1     2     0     0  0.0000000000e+00  0.0000000000e+00  0.0000000000e+00  4.0000000000e+02  4.0000000000e+02 0. 9.
       21     1     3     0   101   102 -1.7990332050e+02 -5.3197548462e+01 -6.9316780863e+01  2.0000000000e+02  0.0000000000e+00 0. 9.
       21     1     3     0   102   101  1.7990332050e+02  5.3197548462e+01  6.9316780863e+01  2.0000000000e+02  0.0000000000e+00 0. 9.
#pdf   11  -11  1.000000e+00  1.000000e+00  4.000000e+02  1.000000e+00  1.000000e+00
</event>
<event>
     5  9999  1.000000e+00  4.000000e+02  7.950764e-03  1.063124e-01
       11    -1     0     0     0     0  0.0000000000e+00  0.0000000000e+00  2.0000000000e+02  2.0000000000e+02  0.0000000000e+00 0. 9.
      -11    -1     0     0     0     0  0.0000000000e+00  0.0000000000e+00 -2.0000000000e+02  2.0000000000e+02  0.0000000000e+00 0. 9.
       25     2     1     2     0     0  0.0000000000e+00  0.0000000000e+00  0.0000000000e+00  4.0000000000e+02  4.0000000000e+02 0. 9.
       21     1     3     0   101   102  1.8749556981e+02  5.7016989789e+01  3.9930867484e+01  2.0000000000e+02  0.0000000000e+00 0. 9.
       21     1     3     0   102   101 -1.8749556981e+02 -5.7016989789e+01 -3.9930867484e+01  2.0000000000e+02  0.0000000000e+00 0. 9.
#pdf   11  -11  1.000000e+00  1.000000e+00  4.000000e+02  1.000000e+00  1.000000e+00
</event>
<event>
     5  9999  1.000000e+00  4.000000e+02  7.950764e-03  1.063124e-01
       11    -1     0     0     0     0  0.0000000000e+00  0.0000000000e+00  2.0000000000e+02  2.0000000000e+02  0.0000000000e+00 0. 9.
      -11    -1     0     0     0     0  0.0000000000e+00  0.0000000000e+00 -2.0000000000e+02  2.0000000000e+02  0.0000000000e+00 0. 9.
       25     2     1     2     0     0  0.0000000000e+00  0.0000000000e+00  0.0000000000e+00  4.0000000000e+02  4.0000000000e+02 0. 9.
       21     1     3     0   101   102 -7.2480115881e+01 -1.8305129788e+02  3.5197374117e+01  2.0000000000e+02  0.0000000000e+00 0. 9.
       21     1     3     0   102   101  7.2480115881e+01  1.8305129788e+02 -3.5197374117e+01  2.0000000000e+02  0.0000000000e+00 0. 9.
#pdf   11  -11  1.000000e+00  1.000000e+00  4.000000e+02  1.000000e+00  1.000000e+00
</event>
<event>
     5  9999  1.000000e+00  4.000000e+02  7.950764e-03  1.063124e-01
       11    -1     0     0     0     0  0.0000000000e+00  0.0000000000e+00  2.0000000000e+02  2.0000000000e+02  0.0000000000e+00 0. 9.
      -11    -1     0     0     0     0  0.0000000000e+00  0.0000000000e+00 -2.0000000000e+02  2.0000000000e+02  0.0000000000e+00 0. 9.
       25     2     1     2     0     0  0.0000000000e+00  0.0000000000e+00  0.0000000000e+00  4.0000000000e+02  4.0000000000e+02 0. 9.
       21     1     3     0   101   102 -1.6884609138e+01 -8.8679785507e+01  1.7846794002e+02  2.0000000000e+02  0.0000000000e+00 0. 9.
       21     1     3     0   102   101  1.6884609138e+01  8.8679785507e+01 -1.7846794002e+02  2.0000000000e+02  0.0000000000e+00 0. 9.
#pdf   11  -11  1.000000e+00  1.000000e+00  4.000000e+02  1.000000e+00  1.000000e+00
</event>
<event>
     5  9999  1.000000e+00  4.000000e+02  7.950764e-03  1.063124e-01
       11    -1     0     0     0     0  0.0000000000e+00  0.0000000000e+00  2.0000000000e+02  2.0000000000e+02  0.0000000000e+00 0. 9.
      -11    -1     0     0     0     0  0.0000000000e+00  0.0000000000e+00 -2.0000000000e+02  2.0000000000e+02  0.0000000000e+00 0. 9.
       25     2     1     2     0     0  0.0000000000e+00  0.0000000000e+00  0.0000000000e+00  4.0000000000e+02  4.0000000000e+02 0. 9.
       21     1     3     0   101   102  1.9803463464e+02 -2.7129750122e+01  6.8014808936e+00  2.0000000000e+02  0.0000000000e+00 0. 9.
       21     1     3     0   102   101 -1.9803463464e+02  2.7129750122e+01 -6.8014808936e+00  2.0000000000e+02  0.0000000000e+00 0. 9.
#pdf   11  -11  1.000000e+00  1.000000e+00  4.000000e+02  1.000000e+00  1.000000e+00
</event>
<event>
     5  9999  1.000000e+00  4.000000e+02  7.950764e-03  1.063124e-01
       11    -1     0     0     0     0  0.0000000000e+00  0.0000000000e+00  2.0000000000e+02  2.0000000000e+02  0.0000000000e+00 0. 9.
      -11    -1     0     0     0     0  0.0000000000e+00  0.0000000000e+00 -2.0000000000e+02  2.0000000000e+02  0.0000000000e+00 0. 9.
       25     2     1     2     0     0  0.0000000000e+00  0.0000000000e+00  0.0000000000e+00  4.0000000000e+02  4.0000000000e+02 0. 9.
       21     1     3     0   101   102  1.8513666650e+02  7.3563344083e+01  1.7687541487e+01  2.0000000000e+02  0.0000000000e+00 0. 9.
       21     1     3     0   102   101 -1.8513666650e+02 -7.3563344083e+01 -1.7687541487e+01  2.0000000000e+02  0.0000000000e+00 0. 9.
#pdf   11  -11  1.000000e+00  1.000000e+00  4.000000e+02  1.000000e+00  1.000000e+00
</event>
<event>
     5  9999  1.000000e+00  4.000000e+02  7.950764e-03  1.063124e-01
       11    -1     0     0     0     0  0.0000000000e+00  0.0000000000e+00  2.0000000000e+02  2.0000000000e+02  0.0000000000e+00 0. 9.
      -11    -1     0     0     0     0  0.0000000000e+00  0.0000000000e+00 -2.0000000000e+02  2.0000000000e+02  0.0000000000e+00 0. 9.
       25     2     1     2     0     0  0.0000000000e+00  0.0000000000e+00  0.0000000000e+00  4.0000000000e+02  4.0000000000e+02 0. 9.
       21     1     3     0   101   102  1.5289871167e+02 -8.6491818184e+01  9.5609358097e+01  2.0000000000e+02  0.0000000000e+00 0. 9.
       21     1     3     0   102   101 -1.5289871167e+02  8.6491818184e+01 -9.5609358097e+01  2.0000000000e+02  0.0000000000e+00 0. 9.
#pdf   11  -11  1.000000e+00  1.000000e+00  4.000000e+02  1.000000e+00  1.000000e+00
</event>
<event>
     5  9999  1.000000e+00  4.000000e+02  7.950764e-03  1.063124e-01
       11    -1     0     0     0     0  0.0000000000e+00  0.0000000000e+00  2.0000000000e+02  2.0000000000e+02  0.0000000000e+00 0. 9.
      -11    -1     0     0     0     0  0.0000000000e+00  0.0000000000e+00 -2.0000000000e+02  2.0000000000e+02  0.0000000000e+00 0. 9.
       25     2     1     2     0     0  0.0000000000e+00  0.0000000000e+00  0.0000000000e+00  4.0000000000e+02  4.0000000000e+02 0. 9.
       21     1     3     0   101   102  8.1549090925e+01 -2.9564676130e+01 -1.8021008766e+02  2.0000000000e+02  0.0000000000e+00 0. 9.
       21     1     3     0   102   101 -8.1549090925e+01  2.9564676130e+01  1.8021008766e+02  2.0000000000e+02  0.0000000000e+00 0. 9.
#pdf   11  -11  1.000000e+00  1.000000e+00  4.000000e+02  1.000000e+00  1.000000e+00
</event>
<event>
     5  9999  1.000000e+00  4.000000e+02  7.950764e-03  1.063124e-01
       11    -1     0     0     0     0  0.0000000000e+00  0.0000000000e+00  2.0000000000e+02  2.0000000000e+02  0.0000000000e+00 0. 9.
      -11    -1     0     0     0     0  0.0000000000e+00  0.0000000000e+00 -2.0000000000e+02  2.0000000000e+02  0.0000000000e+00 0. 9.
       25     2     1     2     0     0  0.0000000000e+00  0.0000000000e+00  0.0000000000e+00  4.0000000000e+02  4.0000000000e+02 0. 9.
       21     1     3     0   101   102  1.4413007092e+02  1.2788203612e+02  5.3597644479e+01  2.0000000000e+02  0.0000000000e+00 0. 9.
       21     1     3     0   102   101 -1.4413007092e+02 -1.2788203612e+02 -5.3597644479e+01  2.0000000000e+02  0.0000000000e+00 0. 9.
#pdf   11  -11  1.000000e+00  1.000000e+00  4.000000e+02  1.000000e+00  1.000000e+00
</event>
<event>
     5  9999  1.000000e+00  4.000000e+02  7.950764e-03  1.063124e-01
       11    -1     0     0     0     0  0.0000000000e+00  0.0000000000e+00  2.0000000000e+02  2.0000000000e+02  0.0000000000e+00 0. 9.
      -11    -1     0     0     0     0  0.0000000000e+00  0.0000000000e+00 -2.0000000000e+02  2.0000000000e+02  0.0000000000e+00 0. 9.
       25     2     1     2     0     0  0.0000000000e+00  0.0000000000e+00  0.0000000000e+00  4.0000000000e+02  4.0000000000e+02 0. 9.
       21     1     3     0   101   102  1.6967574926e+02  2.9989053279e+01  1.0154209372e+02  2.0000000000e+02  0.0000000000e+00 0. 9.
       21     1     3     0   102   101 -1.6967574926e+02 -2.9989053279e+01 -1.0154209372e+02  2.0000000000e+02  0.0000000000e+00 0. 9.
#pdf   11  -11  1.000000e+00  1.000000e+00  4.000000e+02  1.000000e+00  1.000000e+00
</event>
<event>
     5  9999  1.000000e+00  4.000000e+02  7.950764e-03  1.063124e-01
       11    -1     0     0     0     0  0.0000000000e+00  0.0000000000e+00  2.0000000000e+02  2.0000000000e+02  0.0000000000e+00 0. 9.
      -11    -1     0     0     0     0  0.0000000000e+00  0.0000000000e+00 -2.0000000000e+02  2.0000000000e+02  0.0000000000e+00 0. 9.
       25     2     1     2     0     0  0.0000000000e+00  0.0000000000e+00  0.0000000000e+00  4.0000000000e+02  4.0000000000e+02 0. 9.
       21     1     3     0   101   102  5.7267338302e+01 -1.2891371764e+02  1.4178048303e+02  2.0000000000e+02  0.0000000000e+00 0. 9.
       21     1     3     0   102   101 -5.7267338302e+01  1.2891371764e+02 -1.4178048303e+02  2.0000000000e+02  0.0000000000e+00 0. 9.
#pdf   11  -11  1.000000e+00  1.000000e+00  4.000000e+02  1.000000e+00  1.000000e+00
</event>
<event>
     5  9999  1.000000e+00  4.000000e+02  7.950764e-03  1.063124e-01
       11    -1     0     0     0     0  0.0000000000e+00  0.0000000000e+00  2.0000000000e+02  2.0000000000e+02  0.0000000000e+00 0. 9.
      -11    -1     0     0     0     0  0.0000000000e+00  0.0000000000e+00 -2.0000000000e+02  2.0000000000e+02  0.0000000000e+00 0. 9.
       25     2     1     2     0     0  0.0000000000e+00  0.0000000000e+00  0.0000000000e+00  4.0000000000e+02  4.0000000000e+02 0. 9.
       21     1     3     0   101   102 -3.3053375986e+01 -5.8133983996e+01  1.8848849896e+02  2.0000000000e+02  0.0000000000e+00 0. 9.
       21     1     3     0   102   101  3.3053375986e+01  5.8133983996e+01 -1.8848849896e+02  2.0000000000e+02  0.0000000000e+00 0. 9.
#pdf   11  -11  1.000000e+00  1.000000e+00  4.000000e+02  1.000000e+00  1.000000e+00
</event>
<event>
     5  9999  1.000000e+00  4.000000e+02  7.950764e-03  1.063124e-01
       11    -1     0     0     0     0  0.0000000000e+00  0.0000000000e+00  2.0000000000e+02  2.0000000000e+02  0.0000000000e+00 0. 9.
      -11    -1     0     0     0     0  0.0000000000e+00  0.0000000000e+00 -2.0000000000e+02  2.0000000000e+02  0.0000000000e+00 0. 9.
       25     2     1     2     0     0  0.0000000000e+00  0.0000000000e+00  0.0000000000e+00  4.0000000000e+02  4.0000000000e+02 0. 9.
       21     1     3     0   101   102  1.7914899248e+01  1.0142148504e+02 -1.7144310648e+02  2.0000000000e+02  0.0000000000e+00 0. 9.
       21     1     3     0   102   101 -1.7914899248e+01 -1.0142148504e+02  1.7144310648e+02  2.0000000000e+02  0.0000000000e+00 0. 9.
#pdf   11  -11  1.000000e+00  1.000000e+00  4.000000e+02  1.000000e+00  1.000000e+00
</event>
<event>
     5  9999  1.000000e+00  4.000000e+02  7.950764e-03  1.063124e-01
       11    -1     0     0     0     0  0.0000000000e+00  0.0000000000e+00  2.0000000000e+02  2.0000000000e+02  0.0000000000e+00 0. 9.
      -11    -1     0     0     0     0  0.0000000000e+00  0.0000000000e+00 -2.0000000000e+02  2.0000000000e+02  0.0000000000e+00 0. 9.
       25     2     1     2     0     0  0.0000000000e+00  0.0000000000e+00  0.0000000000e+00  4.0000000000e+02  4.0000000000e+02 0. 9.
       21     1     3     0   101   102 -1.1090044435e+02 -1.0353506208e+02  1.3031340056e+02  2.0000000000e+02  0.0000000000e+00 0. 9.
       21     1     3     0   102   101  1.1090044435e+02  1.0353506208e+02 -1.3031340056e+02  2.0000000000e+02  0.0000000000e+00 0. 9.
#pdf   11  -11  1.000000e+00  1.000000e+00  4.000000e+02  1.000000e+00  1.000000e+00
</event>
<event>
     5  9999  1.000000e+00  4.000000e+02  7.950764e-03  1.063124e-01
       11    -1     0     0     0     0  0.0000000000e+00  0.0000000000e+00  2.0000000000e+02  2.0000000000e+02  0.0000000000e+00 0. 9.
      -11    -1     0     0     0     0  0.0000000000e+00  0.0000000000e+00 -2.0000000000e+02  2.0000000000e+02  0.0000000000e+00 0. 9.
       25     2     1     2     0     0  0.0000000000e+00  0.0000000000e+00  0.0000000000e+00  4.0000000000e+02  4.0000000000e+02 0. 9.
       21     1     3     0   101   102 -4.8651622996e+01  1.3224966727e+02  1.4192619591e+02  2.0000000000e+02  0.0000000000e+00 0. 9.
       21     1     3     0   102   101  4.8651622996e+01 -1.3224966727e+02 -1.4192619591e+02  2.0000000000e+02  0.0000000000e+00 0. 9.
#pdf   11  -11  1.000000e+00  1.000000e+00  4.000000e+02  1.000000e+00  1.000000e+00
</event>
<event>
     5  9999  1.000000e+00  4.000000e+02  7.950764e-03  1.063124e-01
       11    -1     0     0     0     0  0.0000000000e+00  0.0000000000e+00  2.0000000000e+02  2.0000000000e+02  0.0000000000e+00 0. 9.
      -11    -1     0     0     0     0  0.0000000000e+00  0.0000000000e+00 -2.0000000000e+02  2.0000000000e+02  0.0000000000e+00 0. 9.
       25     2     1     2     0     0  0.0000000000e+00  0.0000000000e+00  0.0000000000e+00  4.0000000000e+02  4.0000000000e+02 0. 9.
       21     1     3     0   101   102 -1.8183201481e+02 -2.0207905289e+01  8.0800736103e+01  2.0000000000e+02  0.0000000000e+00 0. 9.
       21     1     3     0   102   101  1.8183201481e+02  2.0207905289e+01 -8.0800736103e+01  2.0000000000e+02  0.0000000000e+00 0. 9.
#pdf   11  -11  1.000000e+00  1.000000e+00  4.000000e+02  1.000000e+00  1.000000e+00
</event>
<event>
     5  9999  1.000000e+00  4.000000e+02  7.950764e-03  1.063124e-01
       11    -1     0     0     0     0  0.0000000000e+00  0.0000000000e+00  2.0000000000e+02  2.0000000000e+02  0.0000000000e+00 0. 9.
      -11    -1     0     0     0     0  0.0000000000e+00  0.0000000000e+00 -2.0000000000e+02  2.0000000000e+02  0.0000000000e+00 0. 9.
       25     2     1     2     0     0  0.0000000000e+00  0.0000000000e+00  0.0000000000e+00  4.0000000000e+02  4.0000000000e+02 0. 9.
       21     1     3     0   101   102  1.7392439519e+02  6.0726529499e+01 -7.7862657123e+01  2.0000000000e+02  0.0000000000e+00 0. 9.
       21     1     3     0   102   101 -1.7392439519e+02 -6.0726529499e+01  7.7862657123e+01  2.0000000000e+02  0.0000000000e+00 0. 9.
#pdf   11  -11  1.000000e+00  1.000000e+00  4.000000e+02  1.000000e+00  1.000000e+00
</event>
<event>
     5  9999  1.000000e+00  4.000000e+02  7.950764e-03  1.063124e-01
       11    -1     0     0     0     0  0.0000000000e+00  0.0000000000e+00  2.0000000000e+02  2.0000000000e+02  0.0000000000e+00 0. 9.
      -11    -1     0     0     0     0  0.0000000000e+00  0.0000000000e+00 -2.0000000000e+02  2.0000000000e+02  0.0000000000e+00 0. 9.
       25     2     1     2     0     0  0.0000000000e+00  0.0000000000e+00  0.0000000000e+00  4.0000000000e+02  4.0000000000e+02 0. 9.
       21     1     3     0   101   102 -1.6656581252e+02  4.2961147556e+01 -1.0203024013e+02  2.0000000000e+02  0.0000000000e+00 0. 9.
       21     1     3     0   102   101  1.6656581252e+02 -4.2961147556e+01  1.0203024013e+02  2.0000000000e+02  0.0000000000e+00 0. 9.
#pdf   11  -11  1.000000e+00  1.000000e+00  4.000000e+02  1.000000e+00  1.000000e+00
</event>
<event>
     5  9999  1.000000e+00  4.000000e+02  7.950764e-03  1.063124e-01
       11    -1     0     0     0     0  0.0000000000e+00  0.0000000000e+00  2.0000000000e+02  2.0000000000e+02  0.0000000000e+00 0. 9.
      -11    -1     0     0     0     0  0.0000000000e+00  0.0000000000e+00 -2.0000000000e+02  2.0000000000e+02  0.0000000000e+00 0. 9.
       25     2     1     2     0     0  0.0000000000e+00  0.0000000000e+00  0.0000000000e+00  4.0000000000e+02  4.0000000000e+02 0. 9.
       21     1     3     0   101   102 -1.6186834525e+02  5.8029789218e+01  1.0213315999e+02  2.0000000000e+02  0.0000000000e+00 0. 9.
       21     1     3     0   102   101  1.6186834525e+02 -5.8029789218e+01 -1.0213315999e+02  2.0000000000e+02  0.0000000000e+00 0. 9.
#pdf   11  -11  1.000000e+00  1.000000e+00  4.000000e+02  1.000000e+00  1.000000e+00
</event>
<event>
     5  9999  1.000000e+00  4.000000e+02  7.950764e-03  1.063124e-01
       11    -1     0     0     0     0  0.0000000000e+00  0.0000000000e+00  2.0000000000e+02  2.0000000000e+02  0.0000000000e+00 0. 9.
      -11    -1     0     0     0     0  0.0000000000e+00  0.0000000000e+00 -2.0000000000e+02  2.0000000000e+02  0.0000000000e+00 0. 9.
       25     2     1     2     0     0  0.0000000000e+00  0.0000000000e+00  0.0000000000e+00  4.0000000000e+02  4.0000000000e+02 0. 9.
       21     1     3     0   101   102 -3.7801752832e+01  1.8629039044e+02 -6.2184547211e+01  2.0000000000e+02  0.0000000000e+00 0. 9.
       21     1     3     0   102   101  3.7801752832e+01 -1.8629039044e+02  6.2184547211e+01  2.0000000000e+02  0.0000000000e+00 0. 9.
#pdf   11  -11  1.000000e+00  1.000000e+00  4.000000e+02  1.000000e+00  1.000000e+00
</event>
<event>
     5  9999  1.000000e+00  4.000000e+02  7.950764e-03  1.063124e-01
       11    -1     0     0     0     0  0.0000000000e+00  0.0000000000e+00  2.0000000000e+02  2.0000000000e+02  0.0000000000e+00 0. 9.
      -11    -1     0     0     0     0  0.0000000000e+00  0.0000000000e+00 -2.0000000000e+02  2.0000000000e+02  0.0000000000e+00 0. 9.
       25     2     1     2     0     0  0.0000000000e+00  0.0000000000e+00  0.0000000000e+00  4.0000000000e+02  4.0000000000e+02 0. 9.
       21     1     3     0   101   102 -1.3177052389e+01  1.7560923938e+02 -9.4803799161e+01  2.0000000000e+02  0.0000000000e+00 0. 9.
       21     1     3     0   102   101  1.3177052389e+01 -1.7560923938e+02  9.4803799161e+01  2.0000000000e+02  0.0000000000e+00 0. 9.
#pdf   11  -11  1.000000e+00  1.000000e+00  4.000000e+02  1.000000e+00  1.000000e+00
</event>
<event>
     5  9999  1.000000e+00  4.000000e+02  7.950764e-03  1.063124e-01
       11    -1     0     0     0     0  0.0000000000e+00  0.0000000000e+00  2.0000000000e+02  2.0000000000e+02  0.0000000000e+00 0. 9.
      -11    -1     0     0     0     0  0.0000000000e+00  0.0000000000e+00 -2.0000000000e+02  2.0000000000e+02  0.0000000000e+00 0. 9.
       25     2     1     2     0     0  0.0000000000e+00  0.0000000000e+00  0.0000000000e+00  4.0000000000e+02  4.0000000000e+02 0. 9.
       21     1     3     0   101   102 -1.9821133594e+02 -2.2626925812e+01  1.4152333173e+01  2.0000000000e+02  0.0000000000e+00 0. 9.
       21     1     3     0   102   101  1.9821133594e+02  2.2626925812e+01 -1.4152333173e+01  2.0000000000e+02  0.0000000000e+00 0. 9.
#pdf   11  -11  1.000000e+00  1.000000e+00  4.000000e+02  1.000000e+00  1.000000e+00
</event>
<event>
     5  9999  1.000000e+00  4.000000e+02  7.950764e-03  1.063124e-01
       11    -1     0     0     0     0  0.0000000000e+00  0.0000000000e+00  2.0000000000e+02  2.0000000000e+02  0.0000000000e+00 0. 9.
      -11    -1     0     0     0     0  0.0000000000e+00  0.0000000000e+00 -2.0000000000e+02  2.0000000000e+02  0.0000000000e+00 0. 9.
       25     2     1     2     0     0  0.0000000000e+00  0.0000000000e+00  0.0000000000e+00  4.0000000000e+02  4.0000000000e+02 0. 9.
       21     1     3     0   101   102  1.4101047418e+02  5.5744460399e+01  1.3041702844e+02  2.0000000000e+02  0.0000000000e+00 0. 9.
       21     1     3     0   102   101 -1.4101047418e+02 -5.5744460399e+01 -1.3041702844e+02  2.0000000000e+02  0.0000000000e+00 0. 9.
#pdf   11  -11  1.000000e+00  1.000000e+00  4.000000e+02  1.000000e+00  1.000000e+00
</event>
<event>
     5  9999  1.000000e+00  4.000000e+02  7.950764e-03  1.063124e-01
       11    -1     0     0     0     0  0.0000000000e+00  0.0000000000e+00  2.0000000000e+02  2.0000000000e+02  0.0000000000e+00 0. 9.
      -11    -1     0     0     0     0  0.0000000000e+00  0.0000000000e+00 -2.0000000000e+02  2.0000000000e+02  0.0000000000e+00 0. 9.
       25     2     1     2     0     0  0.0000000000e+00  0.0000000000e+00  0.0000000000e+00  4.0000000000e+02  4.0000000000e+02 0. 9.
       21     1     3     0   101   102 -1.1037535586e+02 -1.1071323244e+02  1.2473917180e+02  2.0000000000e+02  0.0000000000e+00 0. 9.
       21     1     3     0   102   101  1.1037535586e+02  1.1071323244e+02 -1.2473917180e+02  2.0000000000e+02  0.0000000000e+00 0. 9.
#pdf   11  -11  1.000000e+00  1.000000e+00  4.000000e+02  1.000000e+00  1.000000e+00
</event>
<event>
     5  9999  1.000000e+00  4.000000e+02  7.950764e-03  1.063124e-01
       11    -1     0     0     0     0  0.0000000000e+00  0.0000000000e+00  2.0000000000e+02  2.0000000000e+02  0.0000000000e+00 0. 9.
      -11    -1     0     0     0     0  0.0000000000e+00  0.0000000000e+00 -2.0000000000e+02  2.0000000000e+02  0.0000000000e+00 0. 9.
       25     2     1     2     0     0  0.0000000000e+00  0.0000000000e+00  0.0000000000e+00  4.0000000000e+02  4.0000000000e+02 0. 9.
       21     1     3     0   101   102  1.2512281409e+01  1.9946103983e+02 -7.6639679295e+00  2.0000000000e+02  0.0000000000e+00 0. 9.
       21     1     3     0   102   101 -1.2512281409e+01 -1.9946103983e+02  7.6639679295e+00  2.0000000000e+02  0.0000000000e+00 0. 9.
#pdf   11  -11  1.000000e+00  1.000000e+00  4.000000e+02  1.000000e+00  1.000000e+00
</event>
<event>
     5  9999  1.000000e+00  4.000000e+02  7.950764e-03  1.063124e-01
       11    -1     0     0     0     0  0.0000000000e+00  0.0000000000e+00  2.0000000000e+02  2.0000000000e+02  0.0000000000e+00 0. 9.
      -11    -1     0     0     0     0  0.0000000000e+00  0.0000000000e+00 -2.0000000000e+02  2.0000000000e+02  0.0000000000e+00 0. 9.
       25     2     1     2     0     0  0.0000000000e+00  0.0000000000e+00  0.0000000000e+00  4.0000000000e+02  4.0000000000e+02 0. 9.
       21     1     3     0   101   102 -8.6089670586e+01 -6.6264360725e+01 -1.6792141947e+02  2.0000000000e+02  0.0000000000e+00 0. 9.
       21     1     3     0   102   101  8.6089670586e+01  6.6264360725e+01  1.6792141947e+02  2.0000000000e+02  0.0000000000e+00 0. 9.
#pdf   11  -11  1.000000e+00  1.000000e+00  4.000000e+02  1.000000e+00  1.000000e+00
</event>
<event>
     5  9999  1.000000e+00  4.000000e+02  7.950764e-03  1.063124e-01
       11    -1     0     0     0     0  0.0000000000e+00  0.0000000000e+00  2.0000000000e+02  2.0000000000e+02  0.0000000000e+00 0. 9.
      -11    -1     0     0     0     0  0.0000000000e+00  0.0000000000e+00 -2.0000000000e+02  2.0000000000e+02  0.0000000000e+00 0. 9.
       25     2     1     2     0     0  0.0000000000e+00  0.0000000000e+00  0.0000000000e+00  4.0000000000e+02  4.0000000000e+02 0. 9.
       21     1     3     0   101   102 -1.7887801823e+02 -8.9264502528e+00 -8.9011084020e+01  2.0000000000e+02  0.0000000000e+00 0. 9.
       21     1     3     0   102   101  1.7887801823e+02  8.9264502528e+00  8.9011084020e+01  2.0000000000e+02  0.0000000000e+00 0. 9.
#pdf   11  -11  1.000000e+00  1.000000e+00  4.000000e+02  1.000000e+00  1.000000e+00
</event>
<event>
     5  9999  1.000000e+00  4.000000e+02  7.950764e-03  1.063124e-01
       11    -1     0     0     0     0  0.0000000000e+00  0.0000000000e+00  2.0000000000e+02  2.0000000000e+02  0.0000000000e+00 0. 9.
      -11    -1     0     0     0     0  0.0000000000e+00  0.0000000000e+00 -2.0000000000e+02  2.0000000000e+02  0.0000000000e+00 0. 9.
       25     2     1     2     0     0  0.0000000000e+00  0.0000000000e+00  0.0000000000e+00  4.0000000000e+02  4.0000000000e+02 0. 9.
       21     1     3     0   101   102 -8.6927833283e+01 -1.4051187810e+02 -1.1269411658e+02  2.0000000000e+02  0.0000000000e+00 0. 9.
       21     1     3     0   102   101  8.6927833283e+01  1.4051187810e+02  1.1269411658e+02  2.0000000000e+02  0.0000000000e+00 0. 9.
#pdf   11  -11  1.000000e+00  1.000000e+00  4.000000e+02  1.000000e+00  1.000000e+00
</event>
<event>
     5  9999  1.000000e+00  4.000000e+02  7.950764e-03  1.063124e-01
       11    -1     0     0     0     0  0.0000000000e+00  0.0000000000e+00  2.0000000000e+02  2.0000000000e+02  0.0000000000e+00 0. 9.
      -11    -1     0     0     0     0  0.0000000000e+00  0.0000000000e+00 -2.0000000000e+02  2.0000000000e+02  0.0000000000e+00 0. 9.
       25     2     1     2     0     0  0.0000000000e+00  0.0000000000e+00  0.0000000000e+00  4.0000000000e+02  4.0000000000e+02 0. 9.
       21     1     3     0   101   102 -6.8156362912e+01 -6.4404167190e+01  1.7665450304e+02  2.0000000000e+02  0.0000000000e+00 0. 9.
       21     1     3     0   102   101  6.8156362912e+01  6.4404167190e+01 -1.7665450304e+02  2.0000000000e+02  0.0000000000e+00 0. 9.
#pdf   11  -11  1.000000e+00  1.000000e+00  4.000000e+02  1.000000e+00  1.000000e+00
</event>
<event>
     5  9999  1.000000e+00  4.000000e+02  7.950764e-03  1.063124e-01
       11    -1     0     0     0     0  0.0000000000e+00  0.0000000000e+00  2.0000000000e+02  2.0000000000e+02  0.0000000000e+00 0. 9.
      -11    -1     0     0     0     0  0.0000000000e+00  0.0000000000e+00 -2.0000000000e+02  2.0000000000e+02  0.0000000000e+00 0. 9.
       25     2     1     2     0     0  0.0000000000e+00  0.0000000000e+00  0.0000000000e+00  4.0000000000e+02  4.0000000000e+02 0. 9.
       21     1     3     0   101   102 -4.2906871269e+01 -1.3879621761e+02  1.3745766757e+02  2.0000000000e+02  0.0000000000e+00 0. 9.
       21     1     3     0   102   101  4.2906871269e+01  1.3879621761e+02 -1.3745766757e+02  2.0000000000e+02  0.0000000000e+00 0. 9.
#pdf   11  -11  1.000000e+00  1.000000e+00  4.000000e+02  1.000000e+00  1.000000e+00
</event>
<event>
     5  9999  1.000000e+00  4.000000e+02  7.950764e-03  1.063124e-01
       11    -1     0     0     0     0  0.0000000000e+00  0.0000000000e+00  2.0000000000e+02  2.0000000000e+02  0.0000000000e+00 0. 9.
      -11    -1     0     0     0     0  0.0000000000e+00  0.0000000000e+00 -2.0000000000e+02  2.0000000000e+02  0.0000000000e+00 0. 9.
       25     2     1     2     0     0  0.0000000000e+00  0.0000000000e+00  0.0000000000e+00  4.0000000000e+02  4.0000000000e+02 0. 9.
       21     1     3     0   101   102 -5.5793433623e+01 -1.8386579106e+02  5.5501924657e+01  2.0000000000e+02  0.0000000000e+00 0. 9.
       21     1     3     0   102   101  5.5793433623e+01  1.8386579106e+02 -5.5501924657e+01  2.0000000000e+02  0.0000000000e+00 0. 9.
#pdf   11  -11  1.000000e+00  1.000000e+00  4.000000e+02  1.000000e+00  1.000000e+00
</event>
<event>
     5  9999  1.000000e+00  4.000000e+02  7.950764e-03  1.063124e-01
       11    -1     0     0     0     0  0.0000000000e+00  0.0000000000e+00  2.0000000000e+02  2.0000000000e+02  0.0000000000e+00 0. 9.
      -11    -1     0     0     0     0  0.0000000000e+00  0.0000000000e+00 -2.0000000000e+02  2.0000000000e+02  0.0000000000e+00 0. 9.
       25     2     1     2     0     0  0.0000000000e+00  0.0000000000e+00  0.0000000000e+00  4.0000000000e+02  4.0000000000e+02 0. 9.
       21     1     3     0   101   102  5.0181571709e+01  1.8224585803e+02 -6.5331899493e+01  2.0000000000e+02  0.0000000000e+00 0. 9.
       21     1     3     0   102   101 -5.0181571709e+01 -1.8224585803e+02  6.5331899493e+01  2.0000000000e+02  0.0000000000e+00 0. 9.
#pdf   11  -11  1.000000e+00  1.000000e+00  4.000000e+02  1.000000e+00  1.000000e+00
</event>
<event>
     5  9999  1.000000e+00  4.000000e+02  7.950764e-03  1.063124e-01
       11    -1     0     0     0     0  0.0000000000e+00  0.0000000000e+00  2.0000000000e+02  2.0000000000e+02  0.0000000000e+00 0. 9.
      -11    -1     0     0     0     0  0.0000000000e+00  0.0000000000e+00 -2.0000000000e+02  2.0000000000e+02  0.0000000000e+00 0. 9.
       25     2     1     2     0     0  0.0000000000e+00  0.0000000000e+00  0.0000000000e+00  4.0000000000e+02  4.0000000000e+02 0. 9.
       21     1     3     0   101   102  7.0964168971e+01 -1.4998579378e+02  1.1166175884e+02  2.0000000000e+02  0.0000000000e+00 0. 9.
       21     1     3     0   102   101 -7.0964168971e+01  1.4998579378e+02 -1.1166175884e+02  2.0000000000e+02  0.0000000000e+00 0. 9.
#pdf   11  -11  1.000000e+00  1.000000e+00  4.000000e+02  1.000000e+00  1.000000e+00
</event>
<event>
     5  9999  1.000000e+00  4.000000e+02  7.950764e-03  1.063124e-01
       11    -1     0     0     0     0  0.0000000000e+00  0.0000000000e+00  2.0000000000e+02  2.0000000000e+02  0.0000000000e+00 0. 9.
      -11    -1     0     0     0     0  0.0000000000e+00  0.0000000000e+00 -2.0000000000e+02  2.0000000000e+02  0.0000000000e+00 0. 9.
       25     2     1     2     0     0  0.0000000000e+00  0.0000000000e+00  0.0000000000e+00  4.0000000000e+02  4.0000000000e+02 0. 9.
       21     1     3     0   101   102 -1.8670726687e+02  4.6905276500e+01 -5.4224455147e+01  2.0000000000e+02  0.0000000000e+00 0. 9.
       21     1     3     0   102   101  1.8670726687e+02 -4.6905276500e+01  5.4224455147e+01  2.0000000000e+02  0.0000000000e+00 0. 9.
#pdf   11  -11  1.000000e+00  1.000000e+00  4.000000e+02  1.000000e+00  1.000000e+00
</event>
<event>
     5  9999  1.000000e+00  4.000000e+02  7.950764e-03  1.063124e-01
       11    -1     0     0     0     0  0.0000000000e+00  0.0000000000e+00  2.0000000000e+02  2.0000000000e+02  0.0000000000e+00 0. 9.
      -11    -1     0     0     0     0  0.0000000000e+00  0.0000000000e+00 -2.0000000000e+02  2.0000000000e+02  0.0000000000e+00 0. 9.
       25     2     1     2     0     0  0.0000000000e+00  0.0000000000e+00  0.0000000000e+00  4.0000000000e+02  4.0000000000e+02 0. 9.
       21     1     3     0   101   102  6.5026241954e+01 -1.2070608601e+02  1.4560779051e+02  2.0000000000e+02  0.0000000000e+00 0. 9.
       21     1     3     0   102   101 -6.5026241954e+01  1.2070608601e+02 -1.4560779051e+02  2.0000000000e+02  0.0000000000e+00 0. 9.
#pdf   11  -11  1.000000e+00  1.000000e+00  4.000000e+02  1.000000e+00  1.000000e+00
</event>
<event>
     5  9999  1.000000e+00  4.000000e+02  7.950764e-03  1.063124e-01
       11    -1     0     0     0     0  0.0000000000e+00  0.0000000000e+00  2.0000000000e+02  2.0000000000e+02  0.0000000000e+00 0. 9.
      -11    -1     0     0     0     0  0.0000000000e+00  0.0000000000e+00 -2.0000000000e+02  2.0000000000e+02  0.0000000000e+00 0. 9.
       25     2     1     2     0     0  0.0000000000e+00  0.0000000000e+00  0.0000000000e+00  4.0000000000e+02  4.0000000000e+02 0. 9.
       21     1     3     0   101   102 -1.3240583411e+02 -1.4839934053e+02 -2.1126543143e+01  2.0000000000e+02  0.0000000000e+00 0. 9.
       21     1     3     0   102   101  1.3240583411e+02  1.4839934053e+02  2.1126543143e+01  2.0000000000e+02  0.0000000000e+00 0. 9.
#pdf   11  -11  1.000000e+00  1.000000e+00  4.000000e+02  1.000000e+00  1.000000e+00
</event>
<event>
     5  9999  1.000000e+00  4.000000e+02  7.950764e-03  1.063124e-01
       11    -1     0     0     0     0  0.0000000000e+00  0.0000000000e+00  2.0000000000e+02  2.0000000000e+02  0.0000000000e+00 0. 9.
      -11    -1     0     0     0     0  0.0000000000e+00  0.0000000000e+00 -2.0000000000e+02  2.0000000000e+02  0.0000000000e+00 0. 9.
       25     2     1     2     0     0  0.0000000000e+00  0.0000000000e+00  0.0000000000e+00  4.0000000000e+02  4.0000000000e+02 0. 9.
       21     1     3     0   101   102 -1.9947944521e+02 -1.3846904882e+01  4.0266813252e+00  2.0000000000e+02  0.0000000000e+00 0. 9.
       21     1     3     0   102   101  1.9947944521e+02  1.3846904882e+01 -4.0266813252e+00  2.0000000000e+02  0.0000000000e+00 0. 9.
#pdf   11  -11  1.000000e+00  1.000000e+00  4.000000e+02  1.000000e+00  1.000000e+00
</event>
<event>
     5  9999  1.000000e+00  4.000000e+02  7.950764e-03  1.063124e-01
       11    -1     0     0     0     0  0.0000000000e+00  0.0000000000e+00  2.0000000000e+02  2.0000000000e+02  0.0000000000e+00 0. 9.
      -11    -1     0     0     0     0  0.0000000000e+00  0.0000000000e+00 -2.0000000000e+02  2.0000000000e+02  0.0000000000e+00 0. 9.
       25     2     1     2     0     0  0.0000000000e+00  0.0000000000e+00  0.0000000000e+00  4.0000000000e+02  4.0000000000e+02 0. 9.
       21     1     3     0   101   102  9.5497802409e+01 -1.7566593933e+02  4.6526866611e+00  2.0000000000e+02  0.0000000000e+00 0. 9.
       21     1     3     0   102   101 -9.5497802409e+01  1.7566593933e+02 -4.6526866611e+00  2.0000000000e+02  0.0000000000e+00 0. 9.
#pdf   11  -11  1.000000e+00  1.000000e+00  4.000000e+02  1.000000e+00  1.000000e+00
</event>
<event>
     5  9999  1.000000e+00  4.000000e+02  7.950764e-03  1.063124e-01
       11    -1     0     0     0     0  0.0000000000e+00  0.0000000000e+00  2.0000000000e+02  2.0000000000e+02  0.0000000000e+00 0. 9.
      -11    -1     0     0     0     0  0.0000000000e+00  0.0000000000e+00 -2.0000000000e+02  2.0000000000e+02  0.0000000000e+00 0. 9.
       25     2     1     2     0     0  0.0000000000e+00  0.0000000000e+00  0.0000000000e+00  4.0000000000e+02  4.0000000000e+02 0. 9.
       21     1     3     0   101   102  1.5730232136e+02 -4.1879475282e+01 -1.1619849071e+02  2.0000000000e+02  0.0000000000e+00 0. 9.
       21     1     3     0   102   101 -1.5730232136e+02  4.1879475282e+01  1.1619849071e+02  2.0000000000e+02  0.0000000000e+00 0. 9.
#pdf   11  -11  1.000000e+00  1.000000e+00  4.000000e+02  1.000000e+00  1.000000e+00
</event>
<event>
     5  9999  1.000000e+00  4.000000e+02  7.950764e-03  1.063124e-01
       11    -1     0     0     0     0  0.0000000000e+00  0.0000000000e+00  2.0000000000e+02  2.0000000000e+02  0.0000000000e+00 0. 9.
      -11    -1     0     0     0     0  0.0000000000e+00  0.0000000000e+00 -2.0000000000e+02  2.0000000000e+02  0.0000000000e+00 0. 9.
       25     2     1     2     0     0  0.0000000000e+00  0.0000000000e+00  0.0000000000e+00  4.0000000000e+02  4.0000000000e+02 0. 9.
       21     1     3     0   101   102  1.8717320303e+02  6.5929271964e+01 -2.4890222312e+01  2.0000000000e+02  0.0000000000e+00 0. 9.
       21     1     3     0   102   101 -1.8717320303e+02 -6.5929271964e+01  2.4890222312e+01  2.0000000000e+02  0.0000000000e+00 0. 9.
#pdf   11  -11  1.000000e+00  1.000000e+00  4.000000e+02  1.000000e+00  1.000000e+00
</event>
<event>
     5  9999  1.000000e+00  4.000000e+02  7.950764e-03  1.063124e-01
       11    -1     0     0     0     0  0.0000000000e+00  0.0000000000e+00  2.0000000000e+02  2.0000000000e+02  0.0000000000e+00 0. 9.
      -11    -1     0     0     0     0  0.0000000000e+00  0.0000000000e+00 -2.0000000000e+02  2.0000000000e+02  0.0000000000e+00 0. 9.
       25     2     1     2     0     0  0.0000000000e+00  0.0000000000e+00  0.0000000000e+00  4.0000000000e+02  4.0000000000e+02 0. 9.
       21     1     3     0   101   102  1.8503072009e+02 -7.9065680529e+00  7.5505753463e+01  2.0000000000e+02  0.0000000000e+00 0. 9.
       21     1     3     0   102   101 -1.8503072009e+02  7.9065680529e+00 -7.5505753463e+01  2.0000000000e+02  0.0000000000e+00 0. 9.
#pdf   11  -11  1.000000e+00  1.000000e+00  4.000000e+02  1.000000e+00  1.000000e+00
</event>
<event>
     5  9999  1.000000e+00  4.000000e+02  7.950764e-03  1.063124e-01
       11    -1     0     0     0     0  0.0000000000e+00  0.0000000000e+00  2.0000000000e+02  2.0000000000e+02  0.0000000000e+00 0. 9.
      -11    -1     0     0     0     0  0.0000000000e+00  0.0000000000e+00 -2.0000000000e+02  2.0000000000e+02  0.0000000000e+00 0. 9.
       25     2     1     2     0     0  0.0000000000e+00  0.0000000000e+00  0.0000000000e+00  4.0000000000e+02  4.0000000000e+02 0. 9.
       21     1     3     0   101   102  1.6625914946e+02  7.5782450943e+01  8.1332129871e+01  2.0000000000e+02  0.0000000000e+00 0. 9.
       21     1     3     0   102   101 -1.6625914946e+02 -7.5782450943e+01 -8.1332129871e+01  2.0000000000e+02  0.0000000000e+00 0. 9.
#pdf   11  -11  1.000000e+00  1.000000e+00  4.000000e+02  1.000000e+00  1.000000e+00
</event>
<event>
     5  9999  1.000000e+00  4.000000e+02  7.950764e-03  1.063124e-01
       11    -1     0     0     0     0  0.0000000000e+00  0.0000000000e+00  2.0000000000e+02  2.0000000000e+02  0.0000000000e+00 0. 9.
      -11    -1     0     0     0     0  0.0000000000e+00  0.0000000000e+00 -2.0000000000e+02  2.0000000000e+02  0.0000000000e+00 0. 9.
       25     2     1     2     0     0  0.0000000000e+00  0.0000000000e+00  0.0000000000e+00  4.0000000000e+02  4.0000000000e+02 0. 9.
       21     1     3     0   101   102  5.2367172338e+01 -1.6120171147e+02 -1.0616820372e+02  2.0000000000e+02  0.0000000000e+00 0. 9.
       21     1     3     0   102   101 -5.2367172338e+01  1.6120171147e+02  1.0616820372e+02  2.0000000000e+02  0.0000000000e+00 0. 9.
#pdf   11  -11  1.000000e+00  1.000000e+00  4.000000e+02  1.000000e+00  1.000000e+00
</event>
<event>
     5  9999  1.000000e+00  4.000000e+02  7.950764e-03  1.063124e-01
       11    -1     0     0     0     0  0.0000000000e+00  0.0000000000e+00  2.0000000000e+02  2.0000000000e+02  0.0000000000e+00 0. 9.
      -11    -1     0     0     0     0  0.0000000000e+00  0.0000000000e+00 -2.0000000000e+02  2.0000000000e+02  0.0000000000e+00 0. 9.
       25     2     1     2     0     0  0.0000000000e+00  0.0000000000e+00  0.0000000000e+00  4.0000000000e+02  4.0000000000e+02 0. 9.
       21     1     3     0   101   102  5.8218398536e+01 -7.9457806484e+01  1.7406054998e+02  2.0000000000e+02  0.0000000000e+00 0. 9.
       21     1     3     0   102   101 -5.8218398536e+01  7.9457806484e+01 -1.7406054998e+02  2.0000000000e+02  0.0000000000e+00 0. 9.
#pdf   11  -11  1.000000e+00  1.000000e+00  4.000000e+02  1.000000e+00  1.000000e+00
</event>
<event>
     5  9999  1.000000e+00  4.000000e+02  7.950764e-03  1.063124e-01
       11    -1     0     0     0     0  0.0000000000e+00  0.0000000000e+00  2.0000000000e+02  2.0000000000e+02  0.0000000000e+00 0. 9.
      -11    -1     0     0     0     0  0.0000000000e+00  0.0000000000e+00 -2.0000000000e+02  2.0000000000e+02  0.0000000000e+00 0. 9.
       25     2     1     2     0     0  0.0000000000e+00  0.0000000000e+00  0.0000000000e+00  4.0000000000e+02  4.0000000000e+02 0. 9.
       21     1     3     0   101   102 -6.4622875994e+01 -1.5172448764e+02 -1.1315283359e+02  2.0000000000e+02  0.0000000000e+00 0. 9.
       21     1     3     0   102   101  6.4622875994e+01  1.5172448764e+02  1.1315283359e+02  2.0000000000e+02  0.0000000000e+00 0. 9.
#pdf   11  -11  1.000000e+00  1.000000e+00  4.000000e+02  1.000000e+00  1.000000e+00
</event>
<event>
     5  9999  1.000000e+00  4.000000e+02  7.950764e-03  1.063124e-01
       11    -1     0     0     0     0  0.0000000000e+00  0.0000000000e+00  2.0000000000e+02  2.0000000000e+02  0.0000000000e+00 0. 9.
      -11    -1     0     0     0     0  0.0000000000e+00  0.0000000000e+00 -2.0000000000e+02  2.0000000000e+02  0.0000000000e+00 0. 9.
       25     2     1     2     0     0  0.0000000000e+00  0.0000000000e+00  0.0000000000e+00  4.0000000000e+02  4.0000000000e+02 0. 9.
       21     1     3     0   101   102 -1.5187006333e+02 -1.1263701181e+02 -6.5179655057e+01  2.0000000000e+02  0.0000000000e+00 0. 9.
       21     1     3     0   102   101  1.5187006333e+02  1.1263701181e+02  6.5179655057e+01  2.0000000000e+02  0.0000000000e+00 0. 9.
#pdf   11  -11  1.000000e+00  1.000000e+00  4.000000e+02  1.000000e+00  1.000000e+00
</event>
<event>
     5  9999  1.000000e+00  4.000000e+02  7.950764e-03  1.063124e-01
       11    -1     0     0     0     0  0.0000000000e+00  0.0000000000e+00  2.0000000000e+02  2.0000000000e+02  0.0000000000e+00 0. 9.
      -11    -1     0     0     0     0  0.0000000000e+00  0.0000000000e+00 -2.0000000000e+02  2.0000000000e+02  0.0000000000e+00 0. 9.
       25     2     1     2     0     0  0.0000000000e+00  0.0000000000e+00  0.0000000000e+00  4.0000000000e+02  4.0000000000e+02 0. 9.
       21     1     3     0   101   102 -1.9112209787e+02  1.3326795084e+01  5.7399827867e+01  2.0000000000e+02  0.0000000000e+00 0. 9.
       21     1     3     0   102   101  1.9112209787e+02 -1.3326795084e+01 -5.7399827867e+01  2.0000000000e+02  0.0000000000e+00 0. 9.
#pdf   11  -11  1.000000e+00  1.000000e+00  4.000000e+02  1.000000e+00  1.000000e+00
</event>
<event>
     5  9999  1.000000e+00  4.000000e+02  7.950764e-03  1.063124e-01
       11    -1     0     0     0     0  0.0000000000e+00  0.0000000000e+00  2.0000000000e+02  2.0000000000e+02  0.0000000000e+00 0. 9.
      -11    -1     0     0     0     0  0.0000000000e+00  0.0000000000e+00 -2.0000000000e+02  2.0000000000e+02  0.0000000000e+00 0. 9.
       25     2     1     2     0     0  0.0000000000e+00  0.0000000000e+00  0.0000000000e+00  4.0000000000e+02  4.0000000000e+02 0. 9.
       21     1     3     0   101   102  1.6573682336e+02  1.4472457595e+01 -1.1100384388e+02  2.0000000000e+02  0.0000000000e+00 0. 9.
       21     1     3     0   102   101 -1.6573682336e+02 -1.4472457595e+01  1.1100384388e+02  2.0000000000e+02  0.0000000000e+00 0. 9.
#pdf   11  -11  1.000000e+00  1.000000e+00  4.000000e+02  1.000000e+00  1.000000e+00
</event>
<event>
     5  9999  1.000000e+00  4.000000e+02  7.950764e-03  1.063124e-01
       11    -1     0     0     0     0  0.0000000000e+00  0.0000000000e+00  2.0000000000e+02  2.0000000000e+02  0.0000000000e+00 0. 9.
      -11    -1     0     0     0     0  0.0000000000e+00  0.0000000000e+00 -2.0000000000e+02  2.0000000000e+02  0.0000000000e+00 0. 9.
       25     2     1     2     0     0  0.0000000000e+00  0.0000000000e+00  0.0000000000e+00  4.0000000000e+02  4.0000000000e+02 0. 9.
       21     1     3     0   101   102  1.9225272577e+02  4.0197908430e+01 -3.7722905381e+01  2.0000000000e+02  0.0000000000e+00 0. 9.
       21     1     3     0   102   101 -1.9225272577e+02 -4.0197908430e+01  3.7722905381e+01  2.0000000000e+02  0.0000000000e+00 0. 9.
#pdf   11  -11  1.000000e+00  1.000000e+00  4.000000e+02  1.000000e+00  1.000000e+00
</event>
<event>
     5  9999  1.000000e+00  4.000000e+02  7.950764e-03  1.063124e-01
       11    -1     0     0     0     0  0.0000000000e+00  0.0000000000e+00  2.0000000000e+02  2.0000000000e+02  0.0000000000e+00 0. 9.
      -11    -1     0     0     0     0  0.0000000000e+00  0.0000000000e+00 -2.0000000000e+02  2.0000000000e+02  0.0000000000e+00 0. 9.
       25     2     1     2     0     0  0.0000000000e+00  0.0000000000e+00  0.0000000000e+00  4.0000000000e+02  4.0000000000e+02 0. 9.
       21     1     3     0   101   102  5.6260727217e+01 -1.7037494550e+02 -8.8357843561e+01  2.0000000000e+02  0.0000000000e+00 0. 9.
       21     1     3     0   102   101 -5.6260727217e+01  1.7037494550e+02  8.8357843561e+01  2.0000000000e+02  0.0000000000e+00 0. 9.
#pdf   11  -11  1.000000e+00  1.000000e+00  4.000000e+02  1.000000e+00  1.000000e+00
</event>
<event>
     5  9999  1.000000e+00  4.000000e+02  7.950764e-03  1.063124e-01
       11    -1     0     0     0     0  0.0000000000e+00  0.0000000000e+00  2.0000000000e+02  2.0000000000e+02  0.0000000000e+00 0. 9.
      -11    -1     0     0     0     0  0.0000000000e+00  0.0000000000e+00 -2.0000000000e+02  2.0000000000e+02  0.0000000000e+00 0. 9.
       25     2     1     2     0     0  0.0000000000e+00  0.0000000000e+00  0.0000000000e+00  4.0000000000e+02  4.0000000000e+02 0. 9.
       21     1     3     0   101   102  1.5240299086e+02  1.2247909939e+02 -4.2097489136e+01  2.0000000000e+02  0.0000000000e+00 0. 9.
       21     1     3     0   102   101 -1.5240299086e+02 -1.2247909939e+02  4.2097489136e+01  2.0000000000e+02  0.0000000000e+00 0. 9.
#pdf   11  -11  1.000000e+00  1.000000e+00  4.000000e+02  1.000000e+00  1.000000e+00
</event>
<event>
     5  9999  1.000000e+00  4.000000e+02  7.950764e-03  1.063124e-01
       11    -1     0     0     0     0  0.0000000000e+00  0.0000000000e+00  2.0000000000e+02  2.0000000000e+02  0.0000000000e+00 0. 9.
      -11    -1     0     0     0     0  0.0000000000e+00  0.0000000000e+00 -2.0000000000e+02  2.0000000000e+02  0.0000000000e+00 0. 9.
       25     2     1     2     0     0  0.0000000000e+00  0.0000000000e+00  0.0000000000e+00  4.0000000000e+02  4.0000000000e+02 0. 9.
       21     1     3     0   101   102  1.5996983013e+01  5.8955136422e+01  1.9044261189e+02  2.0000000000e+02  0.0000000000e+00 0. 9.
       21     1     3     0   102   101 -1.5996983013e+01 -5.8955136422e+01 -1.9044261189e+02  2.0000000000e+02  0.0000000000e+00 0. 9.
#pdf   11  -11  1.000000e+00  1.000000e+00  4.000000e+02  1.000000e+00  1.000000e+00
</event>
<event>
     5  9999  1.000000e+00  4.000000e+02  7.950764e-03  1.063124e-01
       11    -1     0     0     0     0  0.0000000000e+00  0.0000000000e+00  2.0000000000e+02  2.0000000000e+02  0.0000000000e+00 0. 9.
      -11    -1     0     0     0     0  0.0000000000e+00  0.0000000000e+00 -2.0000000000e+02  2.0000000000e+02  0.0000000000e+00 0. 9.
       25     2     1     2     0     0  0.0000000000e+00  0.0000000000e+00  0.0000000000e+00  4.0000000000e+02  4.0000000000e+02 0. 9.
       21     1     3     0   101   102 -1.4543160031e+02  1.3026171227e+02 -4.3376675184e+01  2.0000000000e+02  0.0000000000e+00 0. 9.
       21     1     3     0   102   101  1.4543160031e+02 -1.3026171227e+02  4.3376675184e+01  2.0000000000e+02  0.0000000000e+00 0. 9.
#pdf   11  -11  1.000000e+00  1.000000e+00  4.000000e+02  1.000000e+00  1.000000e+00
</event>
<event>
     5  9999  1.000000e+00  4.000000e+02  7.950764e-03  1.063124e-01
       11    -1     0     0     0     0  0.0000000000e+00  0.0000000000e+00  2.0000000000e+02  2.0000000000e+02  0.0000000000e+00 0. 9.
      -11    -1     0     0     0     0  0.0000000000e+00  0.0000000000e+00 -2.0000000000e+02  2.0000000000e+02  0.0000000000e+00 0. 9.
       25     2     1     2     0     0  0.0000000000e+00  0.0000000000e+00  0.0000000000e+00  4.0000000000e+02  4.0000000000e+02 0. 9.
       21     1     3     0   101   102  9.2895470433e+01 -1.7172723498e+02 -4.3361138592e+01  2.0000000000e+02  0.0000000000e+00 0. 9.
       21     1     3     0   102   101 -9.2895470433e+01  1.7172723498e+02  4.3361138592e+01  2.0000000000e+02  0.0000000000e+00 0. 9.
#pdf   11  -11  1.000000e+00  1.000000e+00  4.000000e+02  1.000000e+00  1.000000e+00
</event>
<event>
     5  9999  1.000000e+00  4.000000e+02  7.950764e-03  1.063124e-01
       11    -1     0     0     0     0  0.0000000000e+00  0.0000000000e+00  2.0000000000e+02  2.0000000000e+02  0.0000000000e+00 0. 9.
      -11    -1     0     0     0     0  0.0000000000e+00  0.0000000000e+00 -2.0000000000e+02  2.0000000000e+02  0.0000000000e+00 0. 9.
       25     2     1     2     0     0  0.0000000000e+00  0.0000000000e+00  0.0000000000e+00  4.0000000000e+02  4.0000000000e+02 0. 9.
       21     1     3     0   101   102 -4.1702450773e-02 -1.5618091726e+02 -1.2493005781e+02  2.0000000000e+02  0.0000000000e+00 0. 9.
       21     1     3     0   102   101  4.1702450773e-02  1.5618091726e+02  1.2493005781e+02  2.0000000000e+02  0.0000000000e+00 0. 9.
#pdf   11  -11  1.000000e+00  1.000000e+00  4.000000e+02  1.000000e+00  1.000000e+00
</event>
<event>
     5  9999  1.000000e+00  4.000000e+02  7.950764e-03  1.063124e-01
       11    -1     0     0     0     0  0.0000000000e+00  0.0000000000e+00  2.0000000000e+02  2.0000000000e+02  0.0000000000e+00 0. 9.
      -11    -1     0     0     0     0  0.0000000000e+00  0.0000000000e+00 -2.0000000000e+02  2.0000000000e+02  0.0000000000e+00 0. 9.
       25     2     1     2     0     0  0.0000000000e+00  0.0000000000e+00  0.0000000000e+00  4.0000000000e+02  4.0000000000e+02 0. 9.
       21     1     3     0   101   102 -1.1268046136e+02 -1.5209835450e+02 -6.4569374986e+01  2.0000000000e+02  0.0000000000e+00 0. 9.
       21     1     3     0   102   101  1.1268046136e+02  1.5209835450e+02  6.4569374986e+01  2.0000000000e+02  0.0000000000e+00 0. 9.
#pdf   11  -11  1.000000e+00  1.000000e+00  4.000000e+02  1.000000e+00  1.000000e+00
</event>
<event>
     5  9999  1.000000e+00  4.000000e+02  7.950764e-03  1.063124e-01
       11    -1     0     0     0     0  0.0000000000e+00  0.0000000000e+00  2.0000000000e+02  2.0000000000e+02  0.0000000000e+00 0. 9.
      -11    -1     0     0     0     0  0.0000000000e+00  0.0000000000e+00 -2.0000000000e+02  2.0000000000e+02  0.0000000000e+00 0. 9.
       25     2     1     2     0     0  0.0000000000e+00  0.0000000000e+00  0.0000000000e+00  4.0000000000e+02  4.0000000000e+02 0. 9.
       21     1     3     0   101   102  1.4594522406e+02  1.2590215886e+02  5.3372633148e+01  2.0000000000e+02  0.0000000000e+00 0. 9.
       21     1     3     0   102   101 -1.4594522406e+02 -1.2590215886e+02 -5.3372633148e+01  2.0000000000e+02  0.0000000000e+00 0. 9.
#pdf   11  -11  1.000000e+00  1.000000e+00  4.000000e+02  1.000000e+00  1.000000e+00
</event>
<event>
     5  9999  1.000000e+00  4.000000e+02  7.950764e-03  1.063124e-01
       11    -1     0     0     0     0  0.0000000000e+00  0.0000000000e+00  2.0000000000e+02  2.0000000000e+02  0.0000000000e+00 0. 9.
      -11    -1     0     0     0     0  0.0000000000e+00  0.0000000000e+00 -2.0000000000e+02  2.0000000000e+02  0.0000000000e+00 0. 9.
       25     2     1     2     0     0  0.0000000000e+00  0.0000000000e+00  0.0000000000e+00  4.0000000000e+02  4.0000000000e+02 0. 9.
       21     1     3     0   101   102  1.1878317870e+02  1.6019462152e+02 -1.5107603889e+01  2.0000000000e+02  0.0000000000e+00 0. 9.
       21     1     3     0   102   101 -1.1878317870e+02 -1.6019462152e+02  1.5107603889e+01  2.0000000000e+02  0.0000000000e+00 0. 9.
#pdf   11  -11  1.000000e+00  1.000000e+00  4.000000e+02  1.000000e+00  1.000000e+00
</event>
<event>
     5  9999  1.000000e+00  4.000000e+02  7.950764e-03  1.063124e-01
       11    -1     0     0     0     0  0.0000000000e+00  0.0000000000e+00  2.0000000000e+02  2.0000000000e+02  0.0000000000e+00 0. 9.
      -11    -1     0     0     0     0  0.0000000000e+00  0.0000000000e+00 -2.0000000000e+02  2.0000000000e+02  0.0000000000e+00 0. 9.
       25     2     1     2     0     0  0.0000000000e+00  0.0000000000e+00  0.0000000000e+00  4.0000000000e+02  4.0000000000e+02 0. 9.
       21     1     3     0   101   102 -2.8899405059e+01 -1.5402220207e+02 -1.2426578635e+02  2.0000000000e+02  0.0000000000e+00 0. 9.
       21     1     3     0   102   101  2.8899405059e+01  1.5402220207e+02  1.2426578635e+02  2.0000000000e+02  0.0000000000e+00 0. 9.
#pdf   11  -11  1.000000e+00  1.000000e+00  4.000000e+02  1.000000e+00  1.000000e+00
</event>
<event>
     5  9999  1.000000e+00  4.000000e+02  7.950764e-03  1.063124e-01
       11    -1     0     0     0     0  0.0000000000e+00  0.0000000000e+00  2.0000000000e+02  2.0000000000e+02  0.0000000000e+00 0. 9.
      -11    -1     0     0     0     0  0.0000000000e+00  0.0000000000e+00 -2.0000000000e+02  2.0000000000e+02  0.0000000000e+00 0. 9.
       25     2     1     2     0     0  0.0000000000e+00  0.0000000000e+00  0.0000000000e+00  4.0000000000e+02  4.0000000000e+02 0. 9.
       21     1     3     0   101   102  2.7105649978e+01 -1.0826474738e+02 -1.6596393649e+02  2.0000000000e+02  0.0000000000e+00 0. 9.
       21     1     3     0   102   101 -2.7105649978e+01  1.0826474738e+02  1.6596393649e+02  2.0000000000e+02  0.0000000000e+00 0. 9.
#pdf   11  -11  1.000000e+00  1.000000e+00  4.000000e+02  1.000000e+00  1.000000e+00
</event>
<event>
     5  9999  1.000000e+00  4.000000e+02  7.950764e-03  1.063124e-01
       11    -1     0     0     0     0  0.0000000000e+00  0.0000000000e+00  2.0000000000e+02  2.0000000000e+02  0.0000000000e+00 0. 9.
      -11    -1     0     0     0     0  0.0000000000e+00  0.0000000000e+00 -2.0000000000e+02  2.0000000000e+02  0.0000000000e+00 0. 9.
       25     2     1     2     0     0  0.0000000000e+00  0.0000000000e+00  0.0000000000e+00  4.0000000000e+02  4.0000000000e+02 0. 9.
       21     1     3     0   101   102  1.7948517182e+02  7.9907640115e+01  3.7414464423e+01  2.0000000000e+02  0.0000000000e+00 0. 9.
       21     1     3     0   102   101 -1.7948517182e+02 -7.9907640115e+01 -3.7414464423e+01  2.0000000000e+02  0.0000000000e+00 0. 9.
#pdf   11  -11  1.000000e+00  1.000000e+00  4.000000e+02  1.000000e+00  1.000000e+00
</event>
<event>
     5  9999  1.000000e+00  4.000000e+02  7.950764e-03  1.063124e-01
       11    -1     0     0     0     0  0.0000000000e+00  0.0000000000e+00  2.0000000000e+02  2.0000000000e+02  0.0000000000e+00 0. 9.
      -11    -1     0     0     0     0  0.0000000000e+00  0.0000000000e+00 -2.0000000000e+02  2.0000000000e+02  0.0000000000e+00 0. 9.
       25     2     1     2     0     0  0.0000000000e+00  0.0000000000e+00  0.0000000000e+00  4.0000000000e+02  4.0000000000e+02 0. 9.
       21     1     3     0   101   102  5.4850092316e+01 -1.8602957690e+02  4.8830972672e+01  2.0000000000e+02  0.0000000000e+00 0. 9.
       21     1     3     0   102   101 -5.4850092316e+01  1.8602957690e+02 -4.8830972672e+01  2.0000000000e+02  0.0000000000e+00 0. 9.
#pdf   11  -11  1.000000e+00  1.000000e+00  4.000000e+02  1.000000e+00  1.000000e+00
</event>
<event>
     5  9999  1.000000e+00  4.000000e+02  7.950764e-03  1.063124e-01
       11    -1     0     0     0     0  0.0000000000e+00  0.0000000000e+00  2.0000000000e+02  2.0000000000e+02  0.0000000000e+00 0. 9.
      -11    -1     0     0     0     0  0.0000000000e+00  0.0000000000e+00 -2.0000000000e+02  2.0000000000e+02  0.0000000000e+00 0. 9.
       25     2     1     2     0     0  0.0000000000e+00  0.0000000000e+00  0.0000000000e+00  4.0000000000e+02  4.0000000000e+02 0. 9.
       21     1     3     0   101   102  1.2966967467e+02 -1.2939879130e+02 -8.0260378018e+01  2.0000000000e+02  0.0000000000e+00 0. 9.
       21     1     3     0   102   101 -1.2966967467e+02  1.2939879130e+02  8.0260378018e+01  2.0000000000e+02  0.0000000000e+00 0. 9.
#pdf   11  -11  1.000000e+00  1.000000e+00  4.000000e+02  1.000000e+00  1.000000e+00
</event>
<event>
     5  9999  1.000000e+00  4.000000e+02  7.950764e-03  1.063124e-01
       11    -1     0     0     0     0  0.0000000000e+00  0.0000000000e+00  2.0000000000e+02  2.0000000000e+02  0.0000000000e+00 0. 9.
      -11    -1     0     0     0     0  0.0000000000e+00  0.0000000000e+00 -2.0000000000e+02  2.0000000000e+02  0.0000000000e+00 0. 9.
       25     2     1     2     0     0  0.0000000000e+00  0.0000000000e+00  0.0000000000e+00  4.0000000000e+02  4.0000000000e+02 0. 9.
       21     1     3     0   101   102 -1.6913249207e+02  4.4817872426e+01 -9.6879091853e+01  2.0000000000e+02  0.0000000000e+00 0. 9.
       21     1     3     0   102   101  1.6913249207e+02 -4.4817872426e+01  9.6879091853e+01  2.0000000000e+02  0.0000000000e+00 0. 9.
#pdf   11  -11  1.000000e+00  1.000000e+00  4.000000e+02  1.000000e+00  1.000000e+00
</event>
<event>
     5  9999  1.000000e+00  4.000000e+02  7.950764e-03  1.063124e-01
       11    -1     0     0     0     0  0.0000000000e+00  0.0000000000e+00  2.0000000000e+02  2.0000000000e+02  0.0000000000e+00 0. 9.
      -11    -1     0     0     0     0  0.0000000000e+00  0.0000000000e+00 -2.0000000000e+02  2.0000000000e+02  0.0000000000e+00 0. 9.
       25     2     1     2     0     0  0.0000000000e+00  0.0000000000e+00  0.0000000000e+00  4.0000000000e+02  4.0000000000e+02 0. 9.
       21     1     3     0   101   102 -5.4381506401e+01  4.3094715782e+01  1.8757797641e+02  2.0000000000e+02  0.0000000000e+00 0. 9.
       21     1     3     0   102   101  5.4381506401e+01 -4.3094715782e+01 -1.8757797641e+02  2.0000000000e+02  0.0000000000e+00 0. 9.
#pdf   11  -11  1.000000e+00  1.000000e+00  4.000000e+02  1.000000e+00  1.000000e+00
</event>
<event>
     5  9999  1.000000e+00  4.000000e+02  7.950764e-03  1.063124e-01
       11    -1     0     0     0     0  0.0000000000e+00  0.0000000000e+00  2.0000000000e+02  2.0000000000e+02  0.0000000000e+00 0. 9.
      -11    -1     0     0     0     0  0.0000000000e+00  0.0000000000e+00 -2.0000000000e+02  2.0000000000e+02  0.0000000000e+00 0. 9.
       25     2     1     2     0     0  0.0000000000e+00  0.0000000000e+00  0.0000000000e+00  4.0000000000e+02  4.0000000000e+02 0. 9.
       21     1     3     0   101   102  1.5555189744e+01  1.6810350473e+02  1.0723454559e+02  2.0000000000e+02  0.0000000000e+00 0. 9.
       21     1     3     0   102   101 -1.5555189744e+01 -1.6810350473e+02 -1.0723454559e+02  2.0000000000e+02  0.0000000000e+00 0. 9.
#pdf   11  -11  1.000000e+00  1.000000e+00  4.000000e+02  1.000000e+00  1.000000e+00
</event>
<event>
     5  9999  1.000000e+00  4.000000e+02  7.950764e-03  1.063124e-01
       11    -1     0     0     0     0  0.0000000000e+00  0.0000000000e+00  2.0000000000e+02  2.0000000000e+02  0.0000000000e+00 0. 9.
      -11    -1     0     0     0     0  0.0000000000e+00  0.0000000000e+00 -2.0000000000e+02  2.0000000000e+02  0.0000000000e+00 0. 9.
       25     2     1     2     0     0  0.0000000000e+00  0.0000000000e+00  0.0000000000e+00  4.0000000000e+02  4.0000000000e+02 0. 9.
       21     1     3     0   101   102  1.1840929107e+01 -8.8081777728e+01 -1.7916861564e+02  2.0000000000e+02  0.0000000000e+00 0. 9.
       21     1     3     0   102   101 -1.1840929107e+01  8.8081777728e+01  1.7916861564e+02  2.0000000000e+02  0.0000000000e+00 0. 9.
#pdf   11  -11  1.000000e+00  1.000000e+00  4.000000e+02  1.000000e+00  1.000000e+00
</event>
<event>
     5  9999  1.000000e+00  4.000000e+02  7.950764e-03  1.063124e-01
       11    -1     0     0     0     0  0.0000000000e+00  0.0000000000e+00  2.0000000000e+02  2.0000000000e+02  0.0000000000e+00 0. 9.
      -11    -1     0     0     0     0  0.0000000000e+00  0.0000000000e+00 -2.0000000000e+02  2.0000000000e+02  0.0000000000e+00 0. 9.
       25     2     1     2     0     0  0.0000000000e+00  0.0000000000e+00  0.0000000000e+00  4.0000000000e+02  4.0000000000e+02 0. 9.
       21     1     3     0   101   102  9.2320787738e+01  1.0003899328e+02  1.4652328134e+02  2.0000000000e+02  0.0000000000e+00 0. 9.
       21     1     3     0   102   101 -9.2320787738e+01 -1.0003899328e+02 -1.4652328134e+02  2.0000000000e+02  0.0000000000e+00 0. 9.
#pdf   11  -11  1.000000e+00  1.000000e+00  4.000000e+02  1.000000e+00  1.000000e+00
</event>
<event>
     5  9999  1.000000e+00  4.000000e+02  7.950764e-03  1.063124e-01
       11    -1     0     0     0     0  0.0000000000e+00  0.0000000000e+00  2.0000000000e+02  2.0000000000e+02  0.0000000000e+00 0. 9.
      -11    -1     0     0     0     0  0.0000000000e+00  0.0000000000e+00 -2.0000000000e+02  2.0000000000e+02  0.0000000000e+00 0. 9.
       25     2     1     2     0     0  0.0000000000e+00  0.0000000000e+00  0.0000000000e+00  4.0000000000e+02  4.0000000000e+02 0. 9.
       21     1     3     0   101   102 -3.8381223552e+01  1.9526842987e+02  1.9927919512e+01  2.0000000000e+02  0.0000000000e+00 0. 9.
       21     1     3     0   102   101  3.8381223552e+01 -1.9526842987e+02 -1.9927919512e+01  2.0000000000e+02  0.0000000000e+00 0. 9.
#pdf   11  -11  1.000000e+00  1.000000e+00  4.000000e+02  1.000000e+00  1.000000e+00
</event>
<event>
     5  9999  1.000000e+00  4.000000e+02  7.950764e-03  1.063124e-01
       11    -1     0     0     0     0  0.0000000000e+00  0.0000000000e+00  2.0000000000e+02  2.0000000000e+02  0.0000000000e+00 0. 9.
      -11    -1     0     0     0     0  0.0000000000e+00  0.0000000000e+00 -2.0000000000e+02  2.0000000000e+02  0.0000000000e+00 0. 9.
       25     2     1     2     0     0  0.0000000000e+00  0.0000000000e+00  0.0000000000e+00  4.0000000000e+02  4.0000000000e+02 0. 9.
       21     1     3     0   101   102 -2.1577319369e+01  1.9876009579e+02  5.3706246499e+00  2.0000000000e+02  0.0000000000e+00 0. 9.
       21     1     3     0   102   101  2.1577319369e+01 -1.9876009579e+02 -5.3706246499e+00  2.0000000000e+02  0.0000000000e+00 0. 9.
#pdf   11  -11  1.000000e+00  1.000000e+00  4.000000e+02  1.000000e+00  1.000000e+00
</event>
<event>
     5  9999  1.000000e+00  4.000000e+02  7.950764e-03  1.063124e-01
       11    -1     0     0     0     0  0.0000000000e+00  0.0000000000e+00  2.0000000000e+02  2.0000000000e+02  0.0000000000e+00 0. 9.
      -11    -1     0     0     0     0  0.0000000000e+00  0.0000000000e+00 -2.0000000000e+02  2.0000000000e+02  0.0000000000e+00 0. 9.
       25     2     1     2     0     0  0.0000000000e+00  0.0000000000e+00  0.0000000000e+00  4.0000000000e+02  4.0000000000e+02 0. 9.
       21     1     3     0   101   102 -8.4665955087e+01 -1.7615450913e+02 -4.2441311962e+01  2.0000000000e+02  0.0000000000e+00 0. 9.
       21     1     3     0   102   101  8.4665955087e+01  1.7615450913e+02  4.2441311962e+01  2.0000000000e+02  0.0000000000e+00 0. 9.
#pdf   11  -11  1.000000e+00  1.000000e+00  4.000000e+02  1.000000e+00  1.000000e+00
</event>
<event>
     5  9999  1.000000e+00  4.000000e+02  7.950764e-03  1.063124e-01
       11    -1     0     0     0     0  0.0000000000e+00  0.0000000000e+00  2.0000000000e+02  2.0000000000e+02  0.0000000000e+00 0. 9.
      -11    -1     0     0     0     0  0.0000000000e+00  0.0000000000e+00 -2.0000000000e+02  2.0000000000e+02  0.0000000000e+00 0. 9.
       25     2     1     2     0     0  0.0000000000e+00  0.0000000000e+00  0.0000000000e+00  4.0000000000e+02  4.0000000000e+02 0. 9.
       21     1     3     0   101   102  1.5536625595e+02  4.4719159707e+01  1.1773497045e+02  2.0000000000e+02  0.0000000000e+00 0. 9.
       21     1     3     0   102   101 -1.5536625595e+02 -4.4719159707e+01 -1.1773497045e+02  2.0000000000e+02  0.0000000000e+00 0. 9.
#pdf   11  -11  1.000000e+00  1.000000e+00  4.000000e+02  1.000000e+00  1.000000e+00
</event>
<event>
     5  9999  1.000000e+00  4.000000e+02  7.950764e-03  1.063124e-01
       11    -1     0     0     0     0  0.0000000000e+00  0.0000000000e+00  2.0000000000e+02  2.0000000000e+02  0.0000000000e+00 0. 9.
      -11    -1     0     0     0     0  0.0000000000e+00  0.0000000000e+00 -2.0000000000e+02  2.0000000000e+02  0.0000000000e+00 0. 9.
       25     2     1     2     0     0  0.0000000000e+00  0.0000000000e+00  0.0000000000e+00  4.0000000000e+02  4.0000000000e+02 0. 9.
       21     1     3     0   101   102  1.1753837724e+01  1.9596474297e+01  1.9869027529e+02  2.0000000000e+02  0.0000000000e+00 0. 9.
       21     1     3     0   102   101 -1.1753837724e+01 -1.9596474297e+01 -1.9869027529e+02  2.0000000000e+02  0.0000000000e+00 0. 9.
#pdf   11  -11  1.000000e+00  1.000000e+00  4.000000e+02  1.000000e+00  1.000000e+00
</event>
</LesHouchesEvents>
