<LesHouchesEvents version="1.0">
<!--
  File written by Pythia8::LHAup on 07 Jun 2015 at 18:27:23
-->
<init>
  11  -11  8.000000e+02  8.000000e+02  0  0  0  0  3  1
  5.647433e-15  3.333546e-23  1.000000e+00   9999
</init>
<event>
     5  9999  1.000000e+00  1.600000e+03  8.079897e-03  9.131846e-02
       11    -1     0     0     0     0  0.0000000000e+00  0.0000000000e+00  8.0000000000e+02  8.0000000000e+02  0.0000000000e+00 0. 9.
      -11    -1     0     0     0     0  0.0000000000e+00  0.0000000000e+00 -8.0000000000e+02  8.0000000000e+02  0.0000000000e+00 0. 9.
       25     2     1     2     0     0  0.0000000000e+00  0.0000000000e+00  0.0000000000e+00  1.6000000000e+03  1.6000000000e+03 0. 9.
       21     1     3     0   101   102 -1.2762199961e+02 -6.7094308322e+02  4.1659093161e+02  8.0000000000e+02  0.0000000000e+00 0. 9.
       21     1     3     0   102   101  1.2762199961e+02  6.7094308322e+02 -4.1659093161e+02  8.0000000000e+02  0.0000000000e+00 0. 9.
#pdf   11  -11  1.000000e+00  1.000000e+00  1.600000e+03  1.000000e+00  1.000000e+00
</event>
<event>
     5  9999  1.000000e+00  1.600000e+03  8.079897e-03  9.131846e-02
       11    -1     0     0     0     0  0.0000000000e+00  0.0000000000e+00  8.0000000000e+02  8.0000000000e+02  0.0000000000e+00 0. 9.
      -11    -1     0     0     0     0  0.0000000000e+00  0.0000000000e+00 -8.0000000000e+02  8.0000000000e+02  0.0000000000e+00 0. 9.
       25     2     1     2     0     0  0.0000000000e+00  0.0000000000e+00  0.0000000000e+00  1.6000000000e+03  1.6000000000e+03 0. 9.
       21     1     3     0   101   102  3.6527429972e+02  5.5848776717e+01  7.0954605214e+02  8.0000000000e+02  0.0000000000e+00 0. 9.
       21     1     3     0   102   101 -3.6527429972e+02 -5.5848776717e+01 -7.0954605214e+02  8.0000000000e+02  0.0000000000e+00 0. 9.
#pdf   11  -11  1.000000e+00  1.000000e+00  1.600000e+03  1.000000e+00  1.000000e+00
</event>
<event>
     5  9999  1.000000e+00  1.600000e+03  8.079897e-03  9.131846e-02
       11    -1     0     0     0     0  0.0000000000e+00  0.0000000000e+00  8.0000000000e+02  8.0000000000e+02  0.0000000000e+00 0. 9.
      -11    -1     0     0     0     0  0.0000000000e+00  0.0000000000e+00 -8.0000000000e+02  8.0000000000e+02  0.0000000000e+00 0. 9.
       25     2     1     2     0     0  0.0000000000e+00  0.0000000000e+00  0.0000000000e+00  1.6000000000e+03  1.6000000000e+03 0. 9.
       21     1     3     0   101   102 -7.4241316688e+02  2.6157553757e+02  1.4283181645e+02  8.0000000000e+02  0.0000000000e+00 0. 9.
       21     1     3     0   102   101  7.4241316688e+02 -2.6157553757e+02 -1.4283181645e+02  8.0000000000e+02  0.0000000000e+00 0. 9.
#pdf   11  -11  1.000000e+00  1.000000e+00  1.600000e+03  1.000000e+00  1.000000e+00
</event>
<event>
     5  9999  1.000000e+00  1.600000e+03  8.079897e-03  9.131846e-02
       11    -1     0     0     0     0  0.0000000000e+00  0.0000000000e+00  8.0000000000e+02  8.0000000000e+02  0.0000000000e+00 0. 9.
      -11    -1     0     0     0     0  0.0000000000e+00  0.0000000000e+00 -8.0000000000e+02  8.0000000000e+02  0.0000000000e+00 0. 9.
       25     2     1     2     0     0  0.0000000000e+00  0.0000000000e+00  0.0000000000e+00  1.6000000000e+03  1.6000000000e+03 0. 9.
       21     1     3     0   101   102  7.6167720322e+02 -1.7521057556e+02 -1.7073105258e+02  8.0000000000e+02  0.0000000000e+00 0. 9.
       21     1     3     0   102   101 -7.6167720322e+02  1.7521057556e+02  1.7073105258e+02  8.0000000000e+02  0.0000000000e+00 0. 9.
#pdf   11  -11  1.000000e+00  1.000000e+00  1.600000e+03  1.000000e+00  1.000000e+00
</event>
<event>
     5  9999  1.000000e+00  1.600000e+03  8.079897e-03  9.131846e-02
       11    -1     0     0     0     0  0.0000000000e+00  0.0000000000e+00  8.0000000000e+02  8.0000000000e+02  0.0000000000e+00 0. 9.
      -11    -1     0     0     0     0  0.0000000000e+00  0.0000000000e+00 -8.0000000000e+02  8.0000000000e+02  0.0000000000e+00 0. 9.
       25     2     1     2     0     0  0.0000000000e+00  0.0000000000e+00  0.0000000000e+00  1.6000000000e+03  1.6000000000e+03 0. 9.
       21     1     3     0   101   102  7.4953602336e+01 -4.7770141568e+02 -6.3732512500e+02  8.0000000000e+02  0.0000000000e+00 0. 9.
       21     1     3     0   102   101 -7.4953602336e+01  4.7770141568e+02  6.3732512500e+02  8.0000000000e+02  0.0000000000e+00 0. 9.
#pdf   11  -11  1.000000e+00  1.000000e+00  1.600000e+03  1.000000e+00  1.000000e+00
</event>
<event>
     5  9999  1.000000e+00  1.600000e+03  8.079897e-03  9.131846e-02
       11    -1     0     0     0     0  0.0000000000e+00  0.0000000000e+00  8.0000000000e+02  8.0000000000e+02  0.0000000000e+00 0. 9.
      -11    -1     0     0     0     0  0.0000000000e+00  0.0000000000e+00 -8.0000000000e+02  8.0000000000e+02  0.0000000000e+00 0. 9.
       25     2     1     2     0     0  0.0000000000e+00  0.0000000000e+00  0.0000000000e+00  1.6000000000e+03  1.6000000000e+03 0. 9.
       21     1     3     0   101   102 -3.9757629776e+01  3.8060856090e+01  7.9810444311e+02  8.0000000000e+02  0.0000000000e+00 0. 9.
       21     1     3     0   102   101  3.9757629776e+01 -3.8060856090e+01 -7.9810444311e+02  8.0000000000e+02  0.0000000000e+00 0. 9.
#pdf   11  -11  1.000000e+00  1.000000e+00  1.600000e+03  1.000000e+00  1.000000e+00
</event>
<event>
     5  9999  1.000000e+00  1.600000e+03  8.079897e-03  9.131846e-02
       11    -1     0     0     0     0  0.0000000000e+00  0.0000000000e+00  8.0000000000e+02  8.0000000000e+02  0.0000000000e+00 0. 9.
      -11    -1     0     0     0     0  0.0000000000e+00  0.0000000000e+00 -8.0000000000e+02  8.0000000000e+02  0.0000000000e+00 0. 9.
       25     2     1     2     0     0  0.0000000000e+00  0.0000000000e+00  0.0000000000e+00  1.6000000000e+03  1.6000000000e+03 0. 9.
       21     1     3     0   101   102  6.4793730174e+01  7.5618312333e+02 -2.5296018763e+02  8.0000000000e+02  0.0000000000e+00 0. 9.
       21     1     3     0   102   101 -6.4793730174e+01 -7.5618312333e+02  2.5296018763e+02  8.0000000000e+02  0.0000000000e+00 0. 9.
#pdf   11  -11  1.000000e+00  1.000000e+00  1.600000e+03  1.000000e+00  1.000000e+00
</event>
<event>
     5  9999  1.000000e+00  1.600000e+03  8.079897e-03  9.131846e-02
       11    -1     0     0     0     0  0.0000000000e+00  0.0000000000e+00  8.0000000000e+02  8.0000000000e+02  0.0000000000e+00 0. 9.
      -11    -1     0     0     0     0  0.0000000000e+00  0.0000000000e+00 -8.0000000000e+02  8.0000000000e+02  0.0000000000e+00 0. 9.
       25     2     1     2     0     0  0.0000000000e+00  0.0000000000e+00  0.0000000000e+00  1.6000000000e+03  1.6000000000e+03 0. 9.
       21     1     3     0   101   102 -1.4317504452e+02 -2.1982381338e+02  7.5576345353e+02  8.0000000000e+02  0.0000000000e+00 0. 9.
       21     1     3     0   102   101  1.4317504452e+02  2.1982381338e+02 -7.5576345353e+02  8.0000000000e+02  0.0000000000e+00 0. 9.
#pdf   11  -11  1.000000e+00  1.000000e+00  1.600000e+03  1.000000e+00  1.000000e+00
</event>
<event>
     5  9999  1.000000e+00  1.600000e+03  8.079897e-03  9.131846e-02
       11    -1     0     0     0     0  0.0000000000e+00  0.0000000000e+00  8.0000000000e+02  8.0000000000e+02  0.0000000000e+00 0. 9.
      -11    -1     0     0     0     0  0.0000000000e+00  0.0000000000e+00 -8.0000000000e+02  8.0000000000e+02  0.0000000000e+00 0. 9.
       25     2     1     2     0     0  0.0000000000e+00  0.0000000000e+00  0.0000000000e+00  1.6000000000e+03  1.6000000000e+03 0. 9.
       21     1     3     0   101   102 -1.5903853115e+02 -7.6224532435e+02  1.8354512013e+02  8.0000000000e+02  0.0000000000e+00 0. 9.
       21     1     3     0   102   101  1.5903853115e+02  7.6224532435e+02 -1.8354512013e+02  8.0000000000e+02  0.0000000000e+00 0. 9.
#pdf   11  -11  1.000000e+00  1.000000e+00  1.600000e+03  1.000000e+00  1.000000e+00
</event>
<event>
     5  9999  1.000000e+00  1.600000e+03  8.079897e-03  9.131846e-02
       11    -1     0     0     0     0  0.0000000000e+00  0.0000000000e+00  8.0000000000e+02  8.0000000000e+02  0.0000000000e+00 0. 9.
      -11    -1     0     0     0     0  0.0000000000e+00  0.0000000000e+00 -8.0000000000e+02  8.0000000000e+02  0.0000000000e+00 0. 9.
       25     2     1     2     0     0  0.0000000000e+00  0.0000000000e+00  0.0000000000e+00  1.6000000000e+03  1.6000000000e+03 0. 9.
       21     1     3     0   101   102  6.4456755541e+01  5.3736235975e+02  5.8914091777e+02  8.0000000000e+02  0.0000000000e+00 0. 9.
       21     1     3     0   102   101 -6.4456755541e+01 -5.3736235975e+02 -5.8914091777e+02  8.0000000000e+02  0.0000000000e+00 0. 9.
#pdf   11  -11  1.000000e+00  1.000000e+00  1.600000e+03  1.000000e+00  1.000000e+00
</event>
<event>
     5  9999  1.000000e+00  1.600000e+03  8.079897e-03  9.131846e-02
       11    -1     0     0     0     0  0.0000000000e+00  0.0000000000e+00  8.0000000000e+02  8.0000000000e+02  0.0000000000e+00 0. 9.
      -11    -1     0     0     0     0  0.0000000000e+00  0.0000000000e+00 -8.0000000000e+02  8.0000000000e+02  0.0000000000e+00 0. 9.
       25     2     1     2     0     0  0.0000000000e+00  0.0000000000e+00  0.0000000000e+00  1.6000000000e+03  1.6000000000e+03 0. 9.
       21     1     3     0   101   102  6.9690224415e+02 -3.7960996402e+02  1.0111150934e+02  8.0000000000e+02  0.0000000000e+00 0. 9.
       21     1     3     0   102   101 -6.9690224415e+02  3.7960996402e+02 -1.0111150934e+02  8.0000000000e+02  0.0000000000e+00 0. 9.
#pdf   11  -11  1.000000e+00  1.000000e+00  1.600000e+03  1.000000e+00  1.000000e+00
</event>
<event>
     5  9999  1.000000e+00  1.600000e+03  8.079897e-03  9.131846e-02
       11    -1     0     0     0     0  0.0000000000e+00  0.0000000000e+00  8.0000000000e+02  8.0000000000e+02  0.0000000000e+00 0. 9.
      -11    -1     0     0     0     0  0.0000000000e+00  0.0000000000e+00 -8.0000000000e+02  8.0000000000e+02  0.0000000000e+00 0. 9.
       25     2     1     2     0     0  0.0000000000e+00  0.0000000000e+00  0.0000000000e+00  1.6000000000e+03  1.6000000000e+03 0. 9.
       21     1     3     0   101   102 -7.6490621050e+02  1.4661827106e+02  1.8281567691e+02  8.0000000000e+02  0.0000000000e+00 0. 9.
       21     1     3     0   102   101  7.6490621050e+02 -1.4661827106e+02 -1.8281567691e+02  8.0000000000e+02  0.0000000000e+00 0. 9.
#pdf   11  -11  1.000000e+00  1.000000e+00  1.600000e+03  1.000000e+00  1.000000e+00
</event>
<event>
     5  9999  1.000000e+00  1.600000e+03  8.079897e-03  9.131846e-02
       11    -1     0     0     0     0  0.0000000000e+00  0.0000000000e+00  8.0000000000e+02  8.0000000000e+02  0.0000000000e+00 0. 9.
      -11    -1     0     0     0     0  0.0000000000e+00  0.0000000000e+00 -8.0000000000e+02  8.0000000000e+02  0.0000000000e+00 0. 9.
       25     2     1     2     0     0  0.0000000000e+00  0.0000000000e+00  0.0000000000e+00  1.6000000000e+03  1.6000000000e+03 0. 9.
       21     1     3     0   101   102 -2.4138982778e+01  6.9701908643e+02 -3.9189501484e+02  8.0000000000e+02  0.0000000000e+00 0. 9.
       21     1     3     0   102   101  2.4138982778e+01 -6.9701908643e+02  3.9189501484e+02  8.0000000000e+02  0.0000000000e+00 0. 9.
#pdf   11  -11  1.000000e+00  1.000000e+00  1.600000e+03  1.000000e+00  1.000000e+00
</event>
<event>
     5  9999  1.000000e+00  1.600000e+03  8.079897e-03  9.131846e-02
       11    -1     0     0     0     0  0.0000000000e+00  0.0000000000e+00  8.0000000000e+02  8.0000000000e+02  0.0000000000e+00 0. 9.
      -11    -1     0     0     0     0  0.0000000000e+00  0.0000000000e+00 -8.0000000000e+02  8.0000000000e+02  0.0000000000e+00 0. 9.
       25     2     1     2     0     0  0.0000000000e+00  0.0000000000e+00  0.0000000000e+00  1.6000000000e+03  1.6000000000e+03 0. 9.
       21     1     3     0   101   102  4.4767234017e+02  6.4755522141e+02  1.4234363728e+02  8.0000000000e+02  0.0000000000e+00 0. 9.
       21     1     3     0   102   101 -4.4767234017e+02 -6.4755522141e+02 -1.4234363728e+02  8.0000000000e+02  0.0000000000e+00 0. 9.
#pdf   11  -11  1.000000e+00  1.000000e+00  1.600000e+03  1.000000e+00  1.000000e+00
</event>
<event>
     5  9999  1.000000e+00  1.600000e+03  8.079897e-03  9.131846e-02
       11    -1     0     0     0     0  0.0000000000e+00  0.0000000000e+00  8.0000000000e+02  8.0000000000e+02  0.0000000000e+00 0. 9.
      -11    -1     0     0     0     0  0.0000000000e+00  0.0000000000e+00 -8.0000000000e+02  8.0000000000e+02  0.0000000000e+00 0. 9.
       25     2     1     2     0     0  0.0000000000e+00  0.0000000000e+00  0.0000000000e+00  1.6000000000e+03  1.6000000000e+03 0. 9.
       21     1     3     0   101   102  4.2212306554e+02 -2.3917795830e+02  6.3608648925e+02  8.0000000000e+02  0.0000000000e+00 0. 9.
       21     1     3     0   102   101 -4.2212306554e+02  2.3917795830e+02 -6.3608648925e+02  8.0000000000e+02  0.0000000000e+00 0. 9.
#pdf   11  -11  1.000000e+00  1.000000e+00  1.600000e+03  1.000000e+00  1.000000e+00
</event>
<event>
     5  9999  1.000000e+00  1.600000e+03  8.079897e-03  9.131846e-02
       11    -1     0     0     0     0  0.0000000000e+00  0.0000000000e+00  8.0000000000e+02  8.0000000000e+02  0.0000000000e+00 0. 9.
      -11    -1     0     0     0     0  0.0000000000e+00  0.0000000000e+00 -8.0000000000e+02  8.0000000000e+02  0.0000000000e+00 0. 9.
       25     2     1     2     0     0  0.0000000000e+00  0.0000000000e+00  0.0000000000e+00  1.6000000000e+03  1.6000000000e+03 0. 9.
       21     1     3     0   101   102 -4.1972380158e+01  6.1841718843e+02  5.0576526211e+02  8.0000000000e+02  0.0000000000e+00 0. 9.
       21     1     3     0   102   101  4.1972380158e+01 -6.1841718843e+02 -5.0576526211e+02  8.0000000000e+02  0.0000000000e+00 0. 9.
#pdf   11  -11  1.000000e+00  1.000000e+00  1.600000e+03  1.000000e+00  1.000000e+00
</event>
<event>
     5  9999  1.000000e+00  1.600000e+03  8.079897e-03  9.131846e-02
       11    -1     0     0     0     0  0.0000000000e+00  0.0000000000e+00  8.0000000000e+02  8.0000000000e+02  0.0000000000e+00 0. 9.
      -11    -1     0     0     0     0  0.0000000000e+00  0.0000000000e+00 -8.0000000000e+02  8.0000000000e+02  0.0000000000e+00 0. 9.
       25     2     1     2     0     0  0.0000000000e+00  0.0000000000e+00  0.0000000000e+00  1.6000000000e+03  1.6000000000e+03 0. 9.
       21     1     3     0   101   102  7.2638614858e+01  3.9735605193e+02 -6.9053008597e+02  8.0000000000e+02  0.0000000000e+00 0. 9.
       21     1     3     0   102   101 -7.2638614858e+01 -3.9735605193e+02  6.9053008597e+02  8.0000000000e+02  0.0000000000e+00 0. 9.
#pdf   11  -11  1.000000e+00  1.000000e+00  1.600000e+03  1.000000e+00  1.000000e+00
</event>
<event>
     5  9999  1.000000e+00  1.600000e+03  8.079897e-03  9.131846e-02
       11    -1     0     0     0     0  0.0000000000e+00  0.0000000000e+00  8.0000000000e+02  8.0000000000e+02  0.0000000000e+00 0. 9.
      -11    -1     0     0     0     0  0.0000000000e+00  0.0000000000e+00 -8.0000000000e+02  8.0000000000e+02  0.0000000000e+00 0. 9.
       25     2     1     2     0     0  0.0000000000e+00  0.0000000000e+00  0.0000000000e+00  1.6000000000e+03  1.6000000000e+03 0. 9.
       21     1     3     0   101   102 -2.6458915381e+02  6.9364420820e+02  2.9807766122e+02  8.0000000000e+02  0.0000000000e+00 0. 9.
       21     1     3     0   102   101  2.6458915381e+02 -6.9364420820e+02 -2.9807766122e+02  8.0000000000e+02  0.0000000000e+00 0. 9.
#pdf   11  -11  1.000000e+00  1.000000e+00  1.600000e+03  1.000000e+00  1.000000e+00
</event>
<event>
     5  9999  1.000000e+00  1.600000e+03  8.079897e-03  9.131846e-02
       11    -1     0     0     0     0  0.0000000000e+00  0.0000000000e+00  8.0000000000e+02  8.0000000000e+02  0.0000000000e+00 0. 9.
      -11    -1     0     0     0     0  0.0000000000e+00  0.0000000000e+00 -8.0000000000e+02  8.0000000000e+02  0.0000000000e+00 0. 9.
       25     2     1     2     0     0  0.0000000000e+00  0.0000000000e+00  0.0000000000e+00  1.6000000000e+03  1.6000000000e+03 0. 9.
       21     1     3     0   101   102 -1.1600207240e+02  7.7404085412e+02  1.6554236725e+02  8.0000000000e+02  0.0000000000e+00 0. 9.
       21     1     3     0   102   101  1.1600207240e+02 -7.7404085412e+02 -1.6554236725e+02  8.0000000000e+02  0.0000000000e+00 0. 9.
#pdf   11  -11  1.000000e+00  1.000000e+00  1.600000e+03  1.000000e+00  1.000000e+00
</event>
<event>
     5  9999  1.000000e+00  1.600000e+03  8.079897e-03  9.131846e-02
       11    -1     0     0     0     0  0.0000000000e+00  0.0000000000e+00  8.0000000000e+02  8.0000000000e+02  0.0000000000e+00 0. 9.
      -11    -1     0     0     0     0  0.0000000000e+00  0.0000000000e+00 -8.0000000000e+02  8.0000000000e+02  0.0000000000e+00 0. 9.
       25     2     1     2     0     0  0.0000000000e+00  0.0000000000e+00  0.0000000000e+00  1.6000000000e+03  1.6000000000e+03 0. 9.
       21     1     3     0   101   102 -6.8853292573e+02 -2.9309663215e+02 -2.8287236417e+02  8.0000000000e+02  0.0000000000e+00 0. 9.
       21     1     3     0   102   101  6.8853292573e+02  2.9309663215e+02  2.8287236417e+02  8.0000000000e+02  0.0000000000e+00 0. 9.
#pdf   11  -11  1.000000e+00  1.000000e+00  1.600000e+03  1.000000e+00  1.000000e+00
</event>
<event>
     5  9999  1.000000e+00  1.600000e+03  8.079897e-03  9.131846e-02
       11    -1     0     0     0     0  0.0000000000e+00  0.0000000000e+00  8.0000000000e+02  8.0000000000e+02  0.0000000000e+00 0. 9.
      -11    -1     0     0     0     0  0.0000000000e+00  0.0000000000e+00 -8.0000000000e+02  8.0000000000e+02  0.0000000000e+00 0. 9.
       25     2     1     2     0     0  0.0000000000e+00  0.0000000000e+00  0.0000000000e+00  1.6000000000e+03  1.6000000000e+03 0. 9.
       21     1     3     0   101   102  4.1669059036e+02  4.1765327331e+02  5.4030981409e+02  8.0000000000e+02  0.0000000000e+00 0. 9.
       21     1     3     0   102   101 -4.1669059036e+02 -4.1765327331e+02 -5.4030981409e+02  8.0000000000e+02  0.0000000000e+00 0. 9.
#pdf   11  -11  1.000000e+00  1.000000e+00  1.600000e+03  1.000000e+00  1.000000e+00
</event>
<event>
     5  9999  1.000000e+00  1.600000e+03  8.079897e-03  9.131846e-02
       11    -1     0     0     0     0  0.0000000000e+00  0.0000000000e+00  8.0000000000e+02  8.0000000000e+02  0.0000000000e+00 0. 9.
      -11    -1     0     0     0     0  0.0000000000e+00  0.0000000000e+00 -8.0000000000e+02  8.0000000000e+02  0.0000000000e+00 0. 9.
       25     2     1     2     0     0  0.0000000000e+00  0.0000000000e+00  0.0000000000e+00  1.6000000000e+03  1.6000000000e+03 0. 9.
       21     1     3     0   101   102 -1.7102563612e+02 -1.3407105881e+02 -7.6991894572e+02  8.0000000000e+02  0.0000000000e+00 0. 9.
       21     1     3     0   102   101  1.7102563612e+02  1.3407105881e+02  7.6991894572e+02  8.0000000000e+02  0.0000000000e+00 0. 9.
#pdf   11  -11  1.000000e+00  1.000000e+00  1.600000e+03  1.000000e+00  1.000000e+00
</event>
<event>
     5  9999  1.000000e+00  1.600000e+03  8.079897e-03  9.131846e-02
       11    -1     0     0     0     0  0.0000000000e+00  0.0000000000e+00  8.0000000000e+02  8.0000000000e+02  0.0000000000e+00 0. 9.
      -11    -1     0     0     0     0  0.0000000000e+00  0.0000000000e+00 -8.0000000000e+02  8.0000000000e+02  0.0000000000e+00 0. 9.
       25     2     1     2     0     0  0.0000000000e+00  0.0000000000e+00  0.0000000000e+00  1.6000000000e+03  1.6000000000e+03 0. 9.
       21     1     3     0   101   102  7.2596169739e+02  3.2648255973e+02 -7.9929669804e+01  8.0000000000e+02  0.0000000000e+00 0. 9.
       21     1     3     0   102   101 -7.2596169739e+02 -3.2648255973e+02  7.9929669804e+01  8.0000000000e+02  0.0000000000e+00 0. 9.
#pdf   11  -11  1.000000e+00  1.000000e+00  1.600000e+03  1.000000e+00  1.000000e+00
</event>
<event>
     5  9999  1.000000e+00  1.600000e+03  8.079897e-03  9.131846e-02
       11    -1     0     0     0     0  0.0000000000e+00  0.0000000000e+00  8.0000000000e+02  8.0000000000e+02  0.0000000000e+00 0. 9.
      -11    -1     0     0     0     0  0.0000000000e+00  0.0000000000e+00 -8.0000000000e+02  8.0000000000e+02  0.0000000000e+00 0. 9.
       25     2     1     2     0     0  0.0000000000e+00  0.0000000000e+00  0.0000000000e+00  1.6000000000e+03  1.6000000000e+03 0. 9.
       21     1     3     0   101   102 -1.0588502560e+02 -6.1280546489e+02 -5.0324727873e+02  8.0000000000e+02  0.0000000000e+00 0. 9.
       21     1     3     0   102   101  1.0588502560e+02  6.1280546489e+02  5.0324727873e+02  8.0000000000e+02  0.0000000000e+00 0. 9.
#pdf   11  -11  1.000000e+00  1.000000e+00  1.600000e+03  1.000000e+00  1.000000e+00
</event>
<event>
     5  9999  1.000000e+00  1.600000e+03  8.079897e-03  9.131846e-02
       11    -1     0     0     0     0  0.0000000000e+00  0.0000000000e+00  8.0000000000e+02  8.0000000000e+02  0.0000000000e+00 0. 9.
      -11    -1     0     0     0     0  0.0000000000e+00  0.0000000000e+00 -8.0000000000e+02  8.0000000000e+02  0.0000000000e+00 0. 9.
       25     2     1     2     0     0  0.0000000000e+00  0.0000000000e+00  0.0000000000e+00  1.6000000000e+03  1.6000000000e+03 0. 9.
       21     1     3     0   101   102 -2.6977826296e+02 -6.4872856230e+02  3.8258455444e+02  8.0000000000e+02  0.0000000000e+00 0. 9.
       21     1     3     0   102   101  2.6977826296e+02  6.4872856230e+02 -3.8258455444e+02  8.0000000000e+02  0.0000000000e+00 0. 9.
#pdf   11  -11  1.000000e+00  1.000000e+00  1.600000e+03  1.000000e+00  1.000000e+00
</event>
<event>
     5  9999  1.000000e+00  1.600000e+03  8.079897e-03  9.131846e-02
       11    -1     0     0     0     0  0.0000000000e+00  0.0000000000e+00  8.0000000000e+02  8.0000000000e+02  0.0000000000e+00 0. 9.
      -11    -1     0     0     0     0  0.0000000000e+00  0.0000000000e+00 -8.0000000000e+02  8.0000000000e+02  0.0000000000e+00 0. 9.
       25     2     1     2     0     0  0.0000000000e+00  0.0000000000e+00  0.0000000000e+00  1.6000000000e+03  1.6000000000e+03 0. 9.
       21     1     3     0   101   102  3.1167182157e+02 -7.3603695686e+02  3.3320770984e+01  8.0000000000e+02  0.0000000000e+00 0. 9.
       21     1     3     0   102   101 -3.1167182157e+02  7.3603695686e+02 -3.3320770984e+01  8.0000000000e+02  0.0000000000e+00 0. 9.
#pdf   11  -11  1.000000e+00  1.000000e+00  1.600000e+03  1.000000e+00  1.000000e+00
</event>
<event>
     5  9999  1.000000e+00  1.600000e+03  8.079897e-03  9.131846e-02
       11    -1     0     0     0     0  0.0000000000e+00  0.0000000000e+00  8.0000000000e+02  8.0000000000e+02  0.0000000000e+00 0. 9.
      -11    -1     0     0     0     0  0.0000000000e+00  0.0000000000e+00 -8.0000000000e+02  8.0000000000e+02  0.0000000000e+00 0. 9.
       25     2     1     2     0     0  0.0000000000e+00  0.0000000000e+00  0.0000000000e+00  1.6000000000e+03  1.6000000000e+03 0. 9.
       21     1     3     0   101   102 -2.8721381206e+02 -6.8876413113e+02  2.8829186223e+02  8.0000000000e+02  0.0000000000e+00 0. 9.
       21     1     3     0   102   101  2.8721381206e+02  6.8876413113e+02 -2.8829186223e+02  8.0000000000e+02  0.0000000000e+00 0. 9.
#pdf   11  -11  1.000000e+00  1.000000e+00  1.600000e+03  1.000000e+00  1.000000e+00
</event>
<event>
     5  9999  1.000000e+00  1.600000e+03  8.079897e-03  9.131846e-02
       11    -1     0     0     0     0  0.0000000000e+00  0.0000000000e+00  8.0000000000e+02  8.0000000000e+02  0.0000000000e+00 0. 9.
      -11    -1     0     0     0     0  0.0000000000e+00  0.0000000000e+00 -8.0000000000e+02  8.0000000000e+02  0.0000000000e+00 0. 9.
       25     2     1     2     0     0  0.0000000000e+00  0.0000000000e+00  0.0000000000e+00  1.6000000000e+03  1.6000000000e+03 0. 9.
       21     1     3     0   101   102 -7.1961328202e+02 -2.1279019385e+02 -2.7726712345e+02  8.0000000000e+02  0.0000000000e+00 0. 9.
       21     1     3     0   102   101  7.1961328202e+02  2.1279019385e+02  2.7726712345e+02  8.0000000000e+02  0.0000000000e+00 0. 9.
#pdf   11  -11  1.000000e+00  1.000000e+00  1.600000e+03  1.000000e+00  1.000000e+00
</event>
<event>
     5  9999  1.000000e+00  1.600000e+03  8.079897e-03  9.131846e-02
       11    -1     0     0     0     0  0.0000000000e+00  0.0000000000e+00  8.0000000000e+02  8.0000000000e+02  0.0000000000e+00 0. 9.
      -11    -1     0     0     0     0  0.0000000000e+00  0.0000000000e+00 -8.0000000000e+02  8.0000000000e+02  0.0000000000e+00 0. 9.
       25     2     1     2     0     0  0.0000000000e+00  0.0000000000e+00  0.0000000000e+00  1.6000000000e+03  1.6000000000e+03 0. 9.
       21     1     3     0   101   102  7.4998227923e+02  2.2806795916e+02  1.5972346994e+02  8.0000000000e+02  0.0000000000e+00 0. 9.
       21     1     3     0   102   101 -7.4998227923e+02 -2.2806795916e+02 -1.5972346994e+02  8.0000000000e+02  0.0000000000e+00 0. 9.
#pdf   11  -11  1.000000e+00  1.000000e+00  1.600000e+03  1.000000e+00  1.000000e+00
</event>
<event>
     5  9999  1.000000e+00  1.600000e+03  8.079897e-03  9.131846e-02
       11    -1     0     0     0     0  0.0000000000e+00  0.0000000000e+00  8.0000000000e+02  8.0000000000e+02  0.0000000000e+00 0. 9.
      -11    -1     0     0     0     0  0.0000000000e+00  0.0000000000e+00 -8.0000000000e+02  8.0000000000e+02  0.0000000000e+00 0. 9.
       25     2     1     2     0     0  0.0000000000e+00  0.0000000000e+00  0.0000000000e+00  1.6000000000e+03  1.6000000000e+03 0. 9.
       21     1     3     0   101   102 -2.8992046353e+02 -7.3220519154e+02  1.4078949647e+02  8.0000000000e+02  0.0000000000e+00 0. 9.
       21     1     3     0   102   101  2.8992046353e+02  7.3220519154e+02 -1.4078949647e+02  8.0000000000e+02  0.0000000000e+00 0. 9.
#pdf   11  -11  1.000000e+00  1.000000e+00  1.600000e+03  1.000000e+00  1.000000e+00
</event>
<event>
     5  9999  1.000000e+00  1.600000e+03  8.079897e-03  9.131846e-02
       11    -1     0     0     0     0  0.0000000000e+00  0.0000000000e+00  8.0000000000e+02  8.0000000000e+02  0.0000000000e+00 0. 9.
      -11    -1     0     0     0     0  0.0000000000e+00  0.0000000000e+00 -8.0000000000e+02  8.0000000000e+02  0.0000000000e+00 0. 9.
       25     2     1     2     0     0  0.0000000000e+00  0.0000000000e+00  0.0000000000e+00  1.6000000000e+03  1.6000000000e+03 0. 9.
       21     1     3     0   101   102 -6.7538436552e+01 -3.5471914203e+02  7.1387176010e+02  8.0000000000e+02  0.0000000000e+00 0. 9.
       21     1     3     0   102   101  6.7538436552e+01  3.5471914203e+02 -7.1387176010e+02  8.0000000000e+02  0.0000000000e+00 0. 9.
#pdf   11  -11  1.000000e+00  1.000000e+00  1.600000e+03  1.000000e+00  1.000000e+00
</event>
<event>
     5  9999  1.000000e+00  1.600000e+03  8.079897e-03  9.131846e-02
       11    -1     0     0     0     0  0.0000000000e+00  0.0000000000e+00  8.0000000000e+02  8.0000000000e+02  0.0000000000e+00 0. 9.
      -11    -1     0     0     0     0  0.0000000000e+00  0.0000000000e+00 -8.0000000000e+02  8.0000000000e+02  0.0000000000e+00 0. 9.
       25     2     1     2     0     0  0.0000000000e+00  0.0000000000e+00  0.0000000000e+00  1.6000000000e+03  1.6000000000e+03 0. 9.
       21     1     3     0   101   102  7.9213853855e+02 -1.0851900049e+02  2.7205923574e+01  8.0000000000e+02  0.0000000000e+00 0. 9.
       21     1     3     0   102   101 -7.9213853855e+02  1.0851900049e+02 -2.7205923574e+01  8.0000000000e+02  0.0000000000e+00 0. 9.
#pdf   11  -11  1.000000e+00  1.000000e+00  1.600000e+03  1.000000e+00  1.000000e+00
</event>
<event>
     5  9999  1.000000e+00  1.600000e+03  8.079897e-03  9.131846e-02
       11    -1     0     0     0     0  0.0000000000e+00  0.0000000000e+00  8.0000000000e+02  8.0000000000e+02  0.0000000000e+00 0. 9.
      -11    -1     0     0     0     0  0.0000000000e+00  0.0000000000e+00 -8.0000000000e+02  8.0000000000e+02  0.0000000000e+00 0. 9.
       25     2     1     2     0     0  0.0000000000e+00  0.0000000000e+00  0.0000000000e+00  1.6000000000e+03  1.6000000000e+03 0. 9.
       21     1     3     0   101   102  7.4054666601e+02  2.9425337633e+02  7.0750165947e+01  8.0000000000e+02  0.0000000000e+00 0. 9.
       21     1     3     0   102   101 -7.4054666601e+02 -2.9425337633e+02 -7.0750165947e+01  8.0000000000e+02  0.0000000000e+00 0. 9.
#pdf   11  -11  1.000000e+00  1.000000e+00  1.600000e+03  1.000000e+00  1.000000e+00
</event>
<event>
     5  9999  1.000000e+00  1.600000e+03  8.079897e-03  9.131846e-02
       11    -1     0     0     0     0  0.0000000000e+00  0.0000000000e+00  8.0000000000e+02  8.0000000000e+02  0.0000000000e+00 0. 9.
      -11    -1     0     0     0     0  0.0000000000e+00  0.0000000000e+00 -8.0000000000e+02  8.0000000000e+02  0.0000000000e+00 0. 9.
       25     2     1     2     0     0  0.0000000000e+00  0.0000000000e+00  0.0000000000e+00  1.6000000000e+03  1.6000000000e+03 0. 9.
       21     1     3     0   101   102  6.1159484669e+02 -3.4596727274e+02  3.8243743239e+02  8.0000000000e+02  0.0000000000e+00 0. 9.
       21     1     3     0   102   101 -6.1159484669e+02  3.4596727274e+02 -3.8243743239e+02  8.0000000000e+02  0.0000000000e+00 0. 9.
#pdf   11  -11  1.000000e+00  1.000000e+00  1.600000e+03  1.000000e+00  1.000000e+00
</event>
<event>
     5  9999  1.000000e+00  1.600000e+03  8.079897e-03  9.131846e-02
       11    -1     0     0     0     0  0.0000000000e+00  0.0000000000e+00  8.0000000000e+02  8.0000000000e+02  0.0000000000e+00 0. 9.
      -11    -1     0     0     0     0  0.0000000000e+00  0.0000000000e+00 -8.0000000000e+02  8.0000000000e+02  0.0000000000e+00 0. 9.
       25     2     1     2     0     0  0.0000000000e+00  0.0000000000e+00  0.0000000000e+00  1.6000000000e+03  1.6000000000e+03 0. 9.
       21     1     3     0   101   102  3.2619636370e+02 -1.1825870452e+02 -7.2084035064e+02  8.0000000000e+02  0.0000000000e+00 0. 9.
       21     1     3     0   102   101 -3.2619636370e+02  1.1825870452e+02  7.2084035064e+02  8.0000000000e+02  0.0000000000e+00 0. 9.
#pdf   11  -11  1.000000e+00  1.000000e+00  1.600000e+03  1.000000e+00  1.000000e+00
</event>
<event>
     5  9999  1.000000e+00  1.600000e+03  8.079897e-03  9.131846e-02
       11    -1     0     0     0     0  0.0000000000e+00  0.0000000000e+00  8.0000000000e+02  8.0000000000e+02  0.0000000000e+00 0. 9.
      -11    -1     0     0     0     0  0.0000000000e+00  0.0000000000e+00 -8.0000000000e+02  8.0000000000e+02  0.0000000000e+00 0. 9.
       25     2     1     2     0     0  0.0000000000e+00  0.0000000000e+00  0.0000000000e+00  1.6000000000e+03  1.6000000000e+03 0. 9.
       21     1     3     0   101   102  5.7652028369e+02  5.1152814447e+02  2.1439057791e+02  8.0000000000e+02  0.0000000000e+00 0. 9.
       21     1     3     0   102   101 -5.7652028369e+02 -5.1152814447e+02 -2.1439057791e+02  8.0000000000e+02  0.0000000000e+00 0. 9.
#pdf   11  -11  1.000000e+00  1.000000e+00  1.600000e+03  1.000000e+00  1.000000e+00
</event>
<event>
     5  9999  1.000000e+00  1.600000e+03  8.079897e-03  9.131846e-02
       11    -1     0     0     0     0  0.0000000000e+00  0.0000000000e+00  8.0000000000e+02  8.0000000000e+02  0.0000000000e+00 0. 9.
      -11    -1     0     0     0     0  0.0000000000e+00  0.0000000000e+00 -8.0000000000e+02  8.0000000000e+02  0.0000000000e+00 0. 9.
       25     2     1     2     0     0  0.0000000000e+00  0.0000000000e+00  0.0000000000e+00  1.6000000000e+03  1.6000000000e+03 0. 9.
       21     1     3     0   101   102  6.7870299703e+02  1.1995621312e+02  4.0616837488e+02  8.0000000000e+02  0.0000000000e+00 0. 9.
       21     1     3     0   102   101 -6.7870299703e+02 -1.1995621312e+02 -4.0616837488e+02  8.0000000000e+02  0.0000000000e+00 0. 9.
#pdf   11  -11  1.000000e+00  1.000000e+00  1.600000e+03  1.000000e+00  1.000000e+00
</event>
<event>
     5  9999  1.000000e+00  1.600000e+03  8.079897e-03  9.131846e-02
       11    -1     0     0     0     0  0.0000000000e+00  0.0000000000e+00  8.0000000000e+02  8.0000000000e+02  0.0000000000e+00 0. 9.
      -11    -1     0     0     0     0  0.0000000000e+00  0.0000000000e+00 -8.0000000000e+02  8.0000000000e+02  0.0000000000e+00 0. 9.
       25     2     1     2     0     0  0.0000000000e+00  0.0000000000e+00  0.0000000000e+00  1.6000000000e+03  1.6000000000e+03 0. 9.
       21     1     3     0   101   102  2.2906935321e+02 -5.1565487057e+02  5.6712193211e+02  8.0000000000e+02  0.0000000000e+00 0. 9.
       21     1     3     0   102   101 -2.2906935321e+02  5.1565487057e+02 -5.6712193211e+02  8.0000000000e+02  0.0000000000e+00 0. 9.
#pdf   11  -11  1.000000e+00  1.000000e+00  1.600000e+03  1.000000e+00  1.000000e+00
</event>
<event>
     5  9999  1.000000e+00  1.600000e+03  8.079897e-03  9.131846e-02
       11    -1     0     0     0     0  0.0000000000e+00  0.0000000000e+00  8.0000000000e+02  8.0000000000e+02  0.0000000000e+00 0. 9.
      -11    -1     0     0     0     0  0.0000000000e+00  0.0000000000e+00 -8.0000000000e+02  8.0000000000e+02  0.0000000000e+00 0. 9.
       25     2     1     2     0     0  0.0000000000e+00  0.0000000000e+00  0.0000000000e+00  1.6000000000e+03  1.6000000000e+03 0. 9.
       21     1     3     0   101   102 -1.3221350394e+02 -2.3253593598e+02  7.5395399584e+02  8.0000000000e+02  0.0000000000e+00 0. 9.
       21     1     3     0   102   101  1.3221350394e+02  2.3253593598e+02 -7.5395399584e+02  8.0000000000e+02  0.0000000000e+00 0. 9.
#pdf   11  -11  1.000000e+00  1.000000e+00  1.600000e+03  1.000000e+00  1.000000e+00
</event>
<event>
     5  9999  1.000000e+00  1.600000e+03  8.079897e-03  9.131846e-02
       11    -1     0     0     0     0  0.0000000000e+00  0.0000000000e+00  8.0000000000e+02  8.0000000000e+02  0.0000000000e+00 0. 9.
      -11    -1     0     0     0     0  0.0000000000e+00  0.0000000000e+00 -8.0000000000e+02  8.0000000000e+02  0.0000000000e+00 0. 9.
       25     2     1     2     0     0  0.0000000000e+00  0.0000000000e+00  0.0000000000e+00  1.6000000000e+03  1.6000000000e+03 0. 9.
       21     1     3     0   101   102  7.1659596990e+01  4.0568594015e+02 -6.8577242590e+02  8.0000000000e+02  0.0000000000e+00 0. 9.
       21     1     3     0   102   101 -7.1659596990e+01 -4.0568594015e+02  6.8577242590e+02  8.0000000000e+02  0.0000000000e+00 0. 9.
#pdf   11  -11  1.000000e+00  1.000000e+00  1.600000e+03  1.000000e+00  1.000000e+00
</event>
<event>
     5  9999  1.000000e+00  1.600000e+03  8.079897e-03  9.131846e-02
       11    -1     0     0     0     0  0.0000000000e+00  0.0000000000e+00  8.0000000000e+02  8.0000000000e+02  0.0000000000e+00 0. 9.
      -11    -1     0     0     0     0  0.0000000000e+00  0.0000000000e+00 -8.0000000000e+02  8.0000000000e+02  0.0000000000e+00 0. 9.
       25     2     1     2     0     0  0.0000000000e+00  0.0000000000e+00  0.0000000000e+00  1.6000000000e+03  1.6000000000e+03 0. 9.
       21     1     3     0   101   102 -4.4360177739e+02 -4.1414024830e+02  5.2125360222e+02  8.0000000000e+02  0.0000000000e+00 0. 9.
       21     1     3     0   102   101  4.4360177739e+02  4.1414024830e+02 -5.2125360222e+02  8.0000000000e+02  0.0000000000e+00 0. 9.
#pdf   11  -11  1.000000e+00  1.000000e+00  1.600000e+03  1.000000e+00  1.000000e+00
</event>
<event>
     5  9999  1.000000e+00  1.600000e+03  8.079897e-03  9.131846e-02
       11    -1     0     0     0     0  0.0000000000e+00  0.0000000000e+00  8.0000000000e+02  8.0000000000e+02  0.0000000000e+00 0. 9.
      -11    -1     0     0     0     0  0.0000000000e+00  0.0000000000e+00 -8.0000000000e+02  8.0000000000e+02  0.0000000000e+00 0. 9.
       25     2     1     2     0     0  0.0000000000e+00  0.0000000000e+00  0.0000000000e+00  1.6000000000e+03  1.6000000000e+03 0. 9.
       21     1     3     0   101   102 -1.9460649198e+02  5.2899866908e+02  5.6770478366e+02  8.0000000000e+02  0.0000000000e+00 0. 9.
       21     1     3     0   102   101  1.9460649198e+02 -5.2899866908e+02 -5.6770478366e+02  8.0000000000e+02  0.0000000000e+00 0. 9.
#pdf   11  -11  1.000000e+00  1.000000e+00  1.600000e+03  1.000000e+00  1.000000e+00
</event>
<event>
     5  9999  1.000000e+00  1.600000e+03  8.079897e-03  9.131846e-02
       11    -1     0     0     0     0  0.0000000000e+00  0.0000000000e+00  8.0000000000e+02  8.0000000000e+02  0.0000000000e+00 0. 9.
      -11    -1     0     0     0     0  0.0000000000e+00  0.0000000000e+00 -8.0000000000e+02  8.0000000000e+02  0.0000000000e+00 0. 9.
       25     2     1     2     0     0  0.0000000000e+00  0.0000000000e+00  0.0000000000e+00  1.6000000000e+03  1.6000000000e+03 0. 9.
       21     1     3     0   101   102 -7.2732805923e+02 -8.0831621157e+01  3.2320294441e+02  8.0000000000e+02  0.0000000000e+00 0. 9.
       21     1     3     0   102   101  7.2732805923e+02  8.0831621157e+01 -3.2320294441e+02  8.0000000000e+02  0.0000000000e+00 0. 9.
#pdf   11  -11  1.000000e+00  1.000000e+00  1.600000e+03  1.000000e+00  1.000000e+00
</event>
<event>
     5  9999  1.000000e+00  1.600000e+03  8.079897e-03  9.131846e-02
       11    -1     0     0     0     0  0.0000000000e+00  0.0000000000e+00  8.0000000000e+02  8.0000000000e+02  0.0000000000e+00 0. 9.
      -11    -1     0     0     0     0  0.0000000000e+00  0.0000000000e+00 -8.0000000000e+02  8.0000000000e+02  0.0000000000e+00 0. 9.
       25     2     1     2     0     0  0.0000000000e+00  0.0000000000e+00  0.0000000000e+00  1.6000000000e+03  1.6000000000e+03 0. 9.
       21     1     3     0   101   102  6.9569758074e+02  2.4290611799e+02 -3.1145062849e+02  8.0000000000e+02  0.0000000000e+00 0. 9.
       21     1     3     0   102   101 -6.9569758074e+02 -2.4290611799e+02  3.1145062849e+02  8.0000000000e+02  0.0000000000e+00 0. 9.
#pdf   11  -11  1.000000e+00  1.000000e+00  1.600000e+03  1.000000e+00  1.000000e+00
</event>
<event>
     5  9999  1.000000e+00  1.600000e+03  8.079897e-03  9.131846e-02
       11    -1     0     0     0     0  0.0000000000e+00  0.0000000000e+00  8.0000000000e+02  8.0000000000e+02  0.0000000000e+00 0. 9.
      -11    -1     0     0     0     0  0.0000000000e+00  0.0000000000e+00 -8.0000000000e+02  8.0000000000e+02  0.0000000000e+00 0. 9.
       25     2     1     2     0     0  0.0000000000e+00  0.0000000000e+00  0.0000000000e+00  1.6000000000e+03  1.6000000000e+03 0. 9.
       21     1     3     0   101   102 -6.6626325007e+02  1.7184459022e+02 -4.0812096051e+02  8.0000000000e+02  0.0000000000e+00 0. 9.
       21     1     3     0   102   101  6.6626325007e+02 -1.7184459022e+02  4.0812096051e+02  8.0000000000e+02  0.0000000000e+00 0. 9.
#pdf   11  -11  1.000000e+00  1.000000e+00  1.600000e+03  1.000000e+00  1.000000e+00
</event>
<event>
     5  9999  1.000000e+00  1.600000e+03  8.079897e-03  9.131846e-02
       11    -1     0     0     0     0  0.0000000000e+00  0.0000000000e+00  8.0000000000e+02  8.0000000000e+02  0.0000000000e+00 0. 9.
      -11    -1     0     0     0     0  0.0000000000e+00  0.0000000000e+00 -8.0000000000e+02  8.0000000000e+02  0.0000000000e+00 0. 9.
       25     2     1     2     0     0  0.0000000000e+00  0.0000000000e+00  0.0000000000e+00  1.6000000000e+03  1.6000000000e+03 0. 9.
       21     1     3     0   101   102 -6.4747338100e+02  2.3211915687e+02  4.0853263996e+02  8.0000000000e+02  0.0000000000e+00 0. 9.
       21     1     3     0   102   101  6.4747338100e+02 -2.3211915687e+02 -4.0853263996e+02  8.0000000000e+02  0.0000000000e+00 0. 9.
#pdf   11  -11  1.000000e+00  1.000000e+00  1.600000e+03  1.000000e+00  1.000000e+00
</event>
<event>
     5  9999  1.000000e+00  1.600000e+03  8.079897e-03  9.131846e-02
       11    -1     0     0     0     0  0.0000000000e+00  0.0000000000e+00  8.0000000000e+02  8.0000000000e+02  0.0000000000e+00 0. 9.
      -11    -1     0     0     0     0  0.0000000000e+00  0.0000000000e+00 -8.0000000000e+02  8.0000000000e+02  0.0000000000e+00 0. 9.
       25     2     1     2     0     0  0.0000000000e+00  0.0000000000e+00  0.0000000000e+00  1.6000000000e+03  1.6000000000e+03 0. 9.
       21     1     3     0   101   102 -1.5120701133e+02  7.4516156177e+02 -2.4873818884e+02  8.0000000000e+02  0.0000000000e+00 0. 9.
       21     1     3     0   102   101  1.5120701133e+02 -7.4516156177e+02  2.4873818884e+02  8.0000000000e+02  0.0000000000e+00 0. 9.
#pdf   11  -11  1.000000e+00  1.000000e+00  1.600000e+03  1.000000e+00  1.000000e+00
</event>
<event>
     5  9999  1.000000e+00  1.600000e+03  8.079897e-03  9.131846e-02
       11    -1     0     0     0     0  0.0000000000e+00  0.0000000000e+00  8.0000000000e+02  8.0000000000e+02  0.0000000000e+00 0. 9.
      -11    -1     0     0     0     0  0.0000000000e+00  0.0000000000e+00 -8.0000000000e+02  8.0000000000e+02  0.0000000000e+00 0. 9.
       25     2     1     2     0     0  0.0000000000e+00  0.0000000000e+00  0.0000000000e+00  1.6000000000e+03  1.6000000000e+03 0. 9.
       21     1     3     0   101   102 -5.2708209555e+01  7.0243695751e+02 -3.7921519665e+02  8.0000000000e+02  0.0000000000e+00 0. 9.
       21     1     3     0   102   101  5.2708209555e+01 -7.0243695751e+02  3.7921519665e+02  8.0000000000e+02  0.0000000000e+00 0. 9.
#pdf   11  -11  1.000000e+00  1.000000e+00  1.600000e+03  1.000000e+00  1.000000e+00
</event>
<event>
     5  9999  1.000000e+00  1.600000e+03  8.079897e-03  9.131846e-02
       11    -1     0     0     0     0  0.0000000000e+00  0.0000000000e+00  8.0000000000e+02  8.0000000000e+02  0.0000000000e+00 0. 9.
      -11    -1     0     0     0     0  0.0000000000e+00  0.0000000000e+00 -8.0000000000e+02  8.0000000000e+02  0.0000000000e+00 0. 9.
       25     2     1     2     0     0  0.0000000000e+00  0.0000000000e+00  0.0000000000e+00  1.6000000000e+03  1.6000000000e+03 0. 9.
       21     1     3     0   101   102 -7.9284534375e+02 -9.0507703250e+01  5.6609332694e+01  8.0000000000e+02  0.0000000000e+00 0. 9.
       21     1     3     0   102   101  7.9284534375e+02  9.0507703250e+01 -5.6609332694e+01  8.0000000000e+02  0.0000000000e+00 0. 9.
#pdf   11  -11  1.000000e+00  1.000000e+00  1.600000e+03  1.000000e+00  1.000000e+00
</event>
<event>
     5  9999  1.000000e+00  1.600000e+03  8.079897e-03  9.131846e-02
       11    -1     0     0     0     0  0.0000000000e+00  0.0000000000e+00  8.0000000000e+02  8.0000000000e+02  0.0000000000e+00 0. 9.
      -11    -1     0     0     0     0  0.0000000000e+00  0.0000000000e+00 -8.0000000000e+02  8.0000000000e+02  0.0000000000e+00 0. 9.
       25     2     1     2     0     0  0.0000000000e+00  0.0000000000e+00  0.0000000000e+00  1.6000000000e+03  1.6000000000e+03 0. 9.
       21     1     3     0   101   102  5.6404189672e+02  2.2297784160e+02  5.2166811375e+02  8.0000000000e+02  0.0000000000e+00 0. 9.
       21     1     3     0   102   101 -5.6404189672e+02 -2.2297784160e+02 -5.2166811375e+02  8.0000000000e+02  0.0000000000e+00 0. 9.
#pdf   11  -11  1.000000e+00  1.000000e+00  1.600000e+03  1.000000e+00  1.000000e+00
</event>
<event>
     5  9999  1.000000e+00  1.600000e+03  8.079897e-03  9.131846e-02
       11    -1     0     0     0     0  0.0000000000e+00  0.0000000000e+00  8.0000000000e+02  8.0000000000e+02  0.0000000000e+00 0. 9.
      -11    -1     0     0     0     0  0.0000000000e+00  0.0000000000e+00 -8.0000000000e+02  8.0000000000e+02  0.0000000000e+00 0. 9.
       25     2     1     2     0     0  0.0000000000e+00  0.0000000000e+00  0.0000000000e+00  1.6000000000e+03  1.6000000000e+03 0. 9.
       21     1     3     0   101   102 -4.4150142344e+02 -4.4285292975e+02  4.9895668721e+02  8.0000000000e+02  0.0000000000e+00 0. 9.
       21     1     3     0   102   101  4.4150142344e+02  4.4285292975e+02 -4.9895668721e+02  8.0000000000e+02  0.0000000000e+00 0. 9.
#pdf   11  -11  1.000000e+00  1.000000e+00  1.600000e+03  1.000000e+00  1.000000e+00
</event>
<event>
     5  9999  1.000000e+00  1.600000e+03  8.079897e-03  9.131846e-02
       11    -1     0     0     0     0  0.0000000000e+00  0.0000000000e+00  8.0000000000e+02  8.0000000000e+02  0.0000000000e+00 0. 9.
      -11    -1     0     0     0     0  0.0000000000e+00  0.0000000000e+00 -8.0000000000e+02  8.0000000000e+02  0.0000000000e+00 0. 9.
       25     2     1     2     0     0  0.0000000000e+00  0.0000000000e+00  0.0000000000e+00  1.6000000000e+03  1.6000000000e+03 0. 9.
       21     1     3     0   101   102  5.0049125635e+01  7.9784415931e+02 -3.0655871718e+01  8.0000000000e+02  0.0000000000e+00 0. 9.
       21     1     3     0   102   101 -5.0049125635e+01 -7.9784415931e+02  3.0655871718e+01  8.0000000000e+02  0.0000000000e+00 0. 9.
#pdf   11  -11  1.000000e+00  1.000000e+00  1.600000e+03  1.000000e+00  1.000000e+00
</event>
<event>
     5  9999  1.000000e+00  1.600000e+03  8.079897e-03  9.131846e-02
       11    -1     0     0     0     0  0.0000000000e+00  0.0000000000e+00  8.0000000000e+02  8.0000000000e+02  0.0000000000e+00 0. 9.
      -11    -1     0     0     0     0  0.0000000000e+00  0.0000000000e+00 -8.0000000000e+02  8.0000000000e+02  0.0000000000e+00 0. 9.
       25     2     1     2     0     0  0.0000000000e+00  0.0000000000e+00  0.0000000000e+00  1.6000000000e+03  1.6000000000e+03 0. 9.
       21     1     3     0   101   102 -3.4435868234e+02 -2.6505744290e+02 -6.7168567787e+02  8.0000000000e+02  0.0000000000e+00 0. 9.
       21     1     3     0   102   101  3.4435868234e+02  2.6505744290e+02  6.7168567787e+02  8.0000000000e+02  0.0000000000e+00 0. 9.
#pdf   11  -11  1.000000e+00  1.000000e+00  1.600000e+03  1.000000e+00  1.000000e+00
</event>
<event>
     5  9999  1.000000e+00  1.600000e+03  8.079897e-03  9.131846e-02
       11    -1     0     0     0     0  0.0000000000e+00  0.0000000000e+00  8.0000000000e+02  8.0000000000e+02  0.0000000000e+00 0. 9.
      -11    -1     0     0     0     0  0.0000000000e+00  0.0000000000e+00 -8.0000000000e+02  8.0000000000e+02  0.0000000000e+00 0. 9.
       25     2     1     2     0     0  0.0000000000e+00  0.0000000000e+00  0.0000000000e+00  1.6000000000e+03  1.6000000000e+03 0. 9.
       21     1     3     0   101   102 -7.1551207294e+02 -3.5705801011e+01 -3.5604433608e+02  8.0000000000e+02  0.0000000000e+00 0. 9.
       21     1     3     0   102   101  7.1551207294e+02  3.5705801011e+01  3.5604433608e+02  8.0000000000e+02  0.0000000000e+00 0. 9.
#pdf   11  -11  1.000000e+00  1.000000e+00  1.600000e+03  1.000000e+00  1.000000e+00
</event>
<event>
     5  9999  1.000000e+00  1.600000e+03  8.079897e-03  9.131846e-02
       11    -1     0     0     0     0  0.0000000000e+00  0.0000000000e+00  8.0000000000e+02  8.0000000000e+02  0.0000000000e+00 0. 9.
      -11    -1     0     0     0     0  0.0000000000e+00  0.0000000000e+00 -8.0000000000e+02  8.0000000000e+02  0.0000000000e+00 0. 9.
       25     2     1     2     0     0  0.0000000000e+00  0.0000000000e+00  0.0000000000e+00  1.6000000000e+03  1.6000000000e+03 0. 9.
       21     1     3     0   101   102 -3.4771133313e+02 -5.6204751242e+02 -4.5077646633e+02  8.0000000000e+02  0.0000000000e+00 0. 9.
       21     1     3     0   102   101  3.4771133313e+02  5.6204751242e+02  4.5077646633e+02  8.0000000000e+02  0.0000000000e+00 0. 9.
#pdf   11  -11  1.000000e+00  1.000000e+00  1.600000e+03  1.000000e+00  1.000000e+00
</event>
<event>
     5  9999  1.000000e+00  1.600000e+03  8.079897e-03  9.131846e-02
       11    -1     0     0     0     0  0.0000000000e+00  0.0000000000e+00  8.0000000000e+02  8.0000000000e+02  0.0000000000e+00 0. 9.
      -11    -1     0     0     0     0  0.0000000000e+00  0.0000000000e+00 -8.0000000000e+02  8.0000000000e+02  0.0000000000e+00 0. 9.
       25     2     1     2     0     0  0.0000000000e+00  0.0000000000e+00  0.0000000000e+00  1.6000000000e+03  1.6000000000e+03 0. 9.
       21     1     3     0   101   102 -2.7262545165e+02 -2.5761666876e+02  7.0661801215e+02  8.0000000000e+02  0.0000000000e+00 0. 9.
       21     1     3     0   102   101  2.7262545165e+02  2.5761666876e+02 -7.0661801215e+02  8.0000000000e+02  0.0000000000e+00 0. 9.
#pdf   11  -11  1.000000e+00  1.000000e+00  1.600000e+03  1.000000e+00  1.000000e+00
</event>
<event>
     5  9999  1.000000e+00  1.600000e+03  8.079897e-03  9.131846e-02
       11    -1     0     0     0     0  0.0000000000e+00  0.0000000000e+00  8.0000000000e+02  8.0000000000e+02  0.0000000000e+00 0. 9.
      -11    -1     0     0     0     0  0.0000000000e+00  0.0000000000e+00 -8.0000000000e+02  8.0000000000e+02  0.0000000000e+00 0. 9.
       25     2     1     2     0     0  0.0000000000e+00  0.0000000000e+00  0.0000000000e+00  1.6000000000e+03  1.6000000000e+03 0. 9.
       21     1     3     0   101   102 -1.7162748508e+02 -5.5518487044e+02  5.4983067029e+02  8.0000000000e+02  0.0000000000e+00 0. 9.
       21     1     3     0   102   101  1.7162748508e+02  5.5518487044e+02 -5.4983067029e+02  8.0000000000e+02  0.0000000000e+00 0. 9.
#pdf   11  -11  1.000000e+00  1.000000e+00  1.600000e+03  1.000000e+00  1.000000e+00
</event>
<event>
     5  9999  1.000000e+00  1.600000e+03  8.079897e-03  9.131846e-02
       11    -1     0     0     0     0  0.0000000000e+00  0.0000000000e+00  8.0000000000e+02  8.0000000000e+02  0.0000000000e+00 0. 9.
      -11    -1     0     0     0     0  0.0000000000e+00  0.0000000000e+00 -8.0000000000e+02  8.0000000000e+02  0.0000000000e+00 0. 9.
       25     2     1     2     0     0  0.0000000000e+00  0.0000000000e+00  0.0000000000e+00  1.6000000000e+03  1.6000000000e+03 0. 9.
       21     1     3     0   101   102 -2.2317373449e+02 -7.3546316426e+02  2.2200769863e+02  8.0000000000e+02  0.0000000000e+00 0. 9.
       21     1     3     0   102   101  2.2317373449e+02  7.3546316426e+02 -2.2200769863e+02  8.0000000000e+02  0.0000000000e+00 0. 9.
#pdf   11  -11  1.000000e+00  1.000000e+00  1.600000e+03  1.000000e+00  1.000000e+00
</event>
<event>
     5  9999  1.000000e+00  1.600000e+03  8.079897e-03  9.131846e-02
       11    -1     0     0     0     0  0.0000000000e+00  0.0000000000e+00  8.0000000000e+02  8.0000000000e+02  0.0000000000e+00 0. 9.
      -11    -1     0     0     0     0  0.0000000000e+00  0.0000000000e+00 -8.0000000000e+02  8.0000000000e+02  0.0000000000e+00 0. 9.
       25     2     1     2     0     0  0.0000000000e+00  0.0000000000e+00  0.0000000000e+00  1.6000000000e+03  1.6000000000e+03 0. 9.
       21     1     3     0   101   102  2.0072628683e+02  7.2898343212e+02 -2.6132759797e+02  8.0000000000e+02  0.0000000000e+00 0. 9.
       21     1     3     0   102   101 -2.0072628683e+02 -7.2898343212e+02  2.6132759797e+02  8.0000000000e+02  0.0000000000e+00 0. 9.
#pdf   11  -11  1.000000e+00  1.000000e+00  1.600000e+03  1.000000e+00  1.000000e+00
</event>
<event>
     5  9999  1.000000e+00  1.600000e+03  8.079897e-03  9.131846e-02
       11    -1     0     0     0     0  0.0000000000e+00  0.0000000000e+00  8.0000000000e+02  8.0000000000e+02  0.0000000000e+00 0. 9.
      -11    -1     0     0     0     0  0.0000000000e+00  0.0000000000e+00 -8.0000000000e+02  8.0000000000e+02  0.0000000000e+00 0. 9.
       25     2     1     2     0     0  0.0000000000e+00  0.0000000000e+00  0.0000000000e+00  1.6000000000e+03  1.6000000000e+03 0. 9.
       21     1     3     0   101   102  2.8385667588e+02 -5.9994317511e+02  4.4664703537e+02  8.0000000000e+02  0.0000000000e+00 0. 9.
       21     1     3     0   102   101 -2.8385667588e+02  5.9994317511e+02 -4.4664703537e+02  8.0000000000e+02  0.0000000000e+00 0. 9.
#pdf   11  -11  1.000000e+00  1.000000e+00  1.600000e+03  1.000000e+00  1.000000e+00
</event>
<event>
     5  9999  1.000000e+00  1.600000e+03  8.079897e-03  9.131846e-02
       11    -1     0     0     0     0  0.0000000000e+00  0.0000000000e+00  8.0000000000e+02  8.0000000000e+02  0.0000000000e+00 0. 9.
      -11    -1     0     0     0     0  0.0000000000e+00  0.0000000000e+00 -8.0000000000e+02  8.0000000000e+02  0.0000000000e+00 0. 9.
       25     2     1     2     0     0  0.0000000000e+00  0.0000000000e+00  0.0000000000e+00  1.6000000000e+03  1.6000000000e+03 0. 9.
       21     1     3     0   101   102 -7.4682906746e+02  1.8762110600e+02 -2.1689782059e+02  8.0000000000e+02  0.0000000000e+00 0. 9.
       21     1     3     0   102   101  7.4682906746e+02 -1.8762110600e+02  2.1689782059e+02  8.0000000000e+02  0.0000000000e+00 0. 9.
#pdf   11  -11  1.000000e+00  1.000000e+00  1.600000e+03  1.000000e+00  1.000000e+00
</event>
<event>
     5  9999  1.000000e+00  1.600000e+03  8.079897e-03  9.131846e-02
       11    -1     0     0     0     0  0.0000000000e+00  0.0000000000e+00  8.0000000000e+02  8.0000000000e+02  0.0000000000e+00 0. 9.
      -11    -1     0     0     0     0  0.0000000000e+00  0.0000000000e+00 -8.0000000000e+02  8.0000000000e+02  0.0000000000e+00 0. 9.
       25     2     1     2     0     0  0.0000000000e+00  0.0000000000e+00  0.0000000000e+00  1.6000000000e+03  1.6000000000e+03 0. 9.
       21     1     3     0   101   102  2.6010496782e+02 -4.8282434406e+02  5.8243116203e+02  8.0000000000e+02  0.0000000000e+00 0. 9.
       21     1     3     0   102   101 -2.6010496782e+02  4.8282434406e+02 -5.8243116203e+02  8.0000000000e+02  0.0000000000e+00 0. 9.
#pdf   11  -11  1.000000e+00  1.000000e+00  1.600000e+03  1.000000e+00  1.000000e+00
</event>
<event>
     5  9999  1.000000e+00  1.600000e+03  8.079897e-03  9.131846e-02
       11    -1     0     0     0     0  0.0000000000e+00  0.0000000000e+00  8.0000000000e+02  8.0000000000e+02  0.0000000000e+00 0. 9.
      -11    -1     0     0     0     0  0.0000000000e+00  0.0000000000e+00 -8.0000000000e+02  8.0000000000e+02  0.0000000000e+00 0. 9.
       25     2     1     2     0     0  0.0000000000e+00  0.0000000000e+00  0.0000000000e+00  1.6000000000e+03  1.6000000000e+03 0. 9.
       21     1     3     0   101   102 -5.2962333644e+02 -5.9359736210e+02 -8.4506172571e+01  8.0000000000e+02  0.0000000000e+00 0. 9.
       21     1     3     0   102   101  5.2962333644e+02  5.9359736210e+02  8.4506172571e+01  8.0000000000e+02  0.0000000000e+00 0. 9.
#pdf   11  -11  1.000000e+00  1.000000e+00  1.600000e+03  1.000000e+00  1.000000e+00
</event>
<event>
     5  9999  1.000000e+00  1.600000e+03  8.079897e-03  9.131846e-02
       11    -1     0     0     0     0  0.0000000000e+00  0.0000000000e+00  8.0000000000e+02  8.0000000000e+02  0.0000000000e+00 0. 9.
      -11    -1     0     0     0     0  0.0000000000e+00  0.0000000000e+00 -8.0000000000e+02  8.0000000000e+02  0.0000000000e+00 0. 9.
       25     2     1     2     0     0  0.0000000000e+00  0.0000000000e+00  0.0000000000e+00  1.6000000000e+03  1.6000000000e+03 0. 9.
       21     1     3     0   101   102 -7.9791778085e+02 -5.5387619526e+01  1.6106725301e+01  8.0000000000e+02  0.0000000000e+00 0. 9.
       21     1     3     0   102   101  7.9791778085e+02  5.5387619526e+01 -1.6106725301e+01  8.0000000000e+02  0.0000000000e+00 0. 9.
#pdf   11  -11  1.000000e+00  1.000000e+00  1.600000e+03  1.000000e+00  1.000000e+00
</event>
<event>
     5  9999  1.000000e+00  1.600000e+03  8.079897e-03  9.131846e-02
       11    -1     0     0     0     0  0.0000000000e+00  0.0000000000e+00  8.0000000000e+02  8.0000000000e+02  0.0000000000e+00 0. 9.
      -11    -1     0     0     0     0  0.0000000000e+00  0.0000000000e+00 -8.0000000000e+02  8.0000000000e+02  0.0000000000e+00 0. 9.
       25     2     1     2     0     0  0.0000000000e+00  0.0000000000e+00  0.0000000000e+00  1.6000000000e+03  1.6000000000e+03 0. 9.
       21     1     3     0   101   102  3.8199120964e+02 -7.0266375733e+02  1.8610746644e+01  8.0000000000e+02  0.0000000000e+00 0. 9.
       21     1     3     0   102   101 -3.8199120964e+02  7.0266375733e+02 -1.8610746644e+01  8.0000000000e+02  0.0000000000e+00 0. 9.
#pdf   11  -11  1.000000e+00  1.000000e+00  1.600000e+03  1.000000e+00  1.000000e+00
</event>
<event>
     5  9999  1.000000e+00  1.600000e+03  8.079897e-03  9.131846e-02
       11    -1     0     0     0     0  0.0000000000e+00  0.0000000000e+00  8.0000000000e+02  8.0000000000e+02  0.0000000000e+00 0. 9.
      -11    -1     0     0     0     0  0.0000000000e+00  0.0000000000e+00 -8.0000000000e+02  8.0000000000e+02  0.0000000000e+00 0. 9.
       25     2     1     2     0     0  0.0000000000e+00  0.0000000000e+00  0.0000000000e+00  1.6000000000e+03  1.6000000000e+03 0. 9.
       21     1     3     0   101   102  6.2920928545e+02 -1.6751790113e+02 -4.6479396285e+02  8.0000000000e+02  0.0000000000e+00 0. 9.
       21     1     3     0   102   101 -6.2920928545e+02  1.6751790113e+02  4.6479396285e+02  8.0000000000e+02  0.0000000000e+00 0. 9.
#pdf   11  -11  1.000000e+00  1.000000e+00  1.600000e+03  1.000000e+00  1.000000e+00
</event>
<event>
     5  9999  1.000000e+00  1.600000e+03  8.079897e-03  9.131846e-02
       11    -1     0     0     0     0  0.0000000000e+00  0.0000000000e+00  8.0000000000e+02  8.0000000000e+02  0.0000000000e+00 0. 9.
      -11    -1     0     0     0     0  0.0000000000e+00  0.0000000000e+00 -8.0000000000e+02  8.0000000000e+02  0.0000000000e+00 0. 9.
       25     2     1     2     0     0  0.0000000000e+00  0.0000000000e+00  0.0000000000e+00  1.6000000000e+03  1.6000000000e+03 0. 9.
       21     1     3     0   101   102  7.4869281211e+02  2.6371708786e+02 -9.9560889248e+01  8.0000000000e+02  0.0000000000e+00 0. 9.
       21     1     3     0   102   101 -7.4869281211e+02 -2.6371708786e+02  9.9560889248e+01  8.0000000000e+02  0.0000000000e+00 0. 9.
#pdf   11  -11  1.000000e+00  1.000000e+00  1.600000e+03  1.000000e+00  1.000000e+00
</event>
<event>
     5  9999  1.000000e+00  1.600000e+03  8.079897e-03  9.131846e-02
       11    -1     0     0     0     0  0.0000000000e+00  0.0000000000e+00  8.0000000000e+02  8.0000000000e+02  0.0000000000e+00 0. 9.
      -11    -1     0     0     0     0  0.0000000000e+00  0.0000000000e+00 -8.0000000000e+02  8.0000000000e+02  0.0000000000e+00 0. 9.
       25     2     1     2     0     0  0.0000000000e+00  0.0000000000e+00  0.0000000000e+00  1.6000000000e+03  1.6000000000e+03 0. 9.
       21     1     3     0   101   102  7.4012288034e+02 -3.1626272212e+01  3.0202301385e+02  8.0000000000e+02  0.0000000000e+00 0. 9.
       21     1     3     0   102   101 -7.4012288034e+02  3.1626272212e+01 -3.0202301385e+02  8.0000000000e+02  0.0000000000e+00 0. 9.
#pdf   11  -11  1.000000e+00  1.000000e+00  1.600000e+03  1.000000e+00  1.000000e+00
</event>
<event>
     5  9999  1.000000e+00  1.600000e+03  8.079897e-03  9.131846e-02
       11    -1     0     0     0     0  0.0000000000e+00  0.0000000000e+00  8.0000000000e+02  8.0000000000e+02  0.0000000000e+00 0. 9.
      -11    -1     0     0     0     0  0.0000000000e+00  0.0000000000e+00 -8.0000000000e+02  8.0000000000e+02  0.0000000000e+00 0. 9.
       25     2     1     2     0     0  0.0000000000e+00  0.0000000000e+00  0.0000000000e+00  1.6000000000e+03  1.6000000000e+03 0. 9.
       21     1     3     0   101   102  6.6503659785e+02  3.0312980377e+02  3.2532851948e+02  8.0000000000e+02  0.0000000000e+00 0. 9.
       21     1     3     0   102   101 -6.6503659785e+02 -3.0312980377e+02 -3.2532851948e+02  8.0000000000e+02  0.0000000000e+00 0. 9.
#pdf   11  -11  1.000000e+00  1.000000e+00  1.600000e+03  1.000000e+00  1.000000e+00
</event>
<event>
     5  9999  1.000000e+00  1.600000e+03  8.079897e-03  9.131846e-02
       11    -1     0     0     0     0  0.0000000000e+00  0.0000000000e+00  8.0000000000e+02  8.0000000000e+02  0.0000000000e+00 0. 9.
      -11    -1     0     0     0     0  0.0000000000e+00  0.0000000000e+00 -8.0000000000e+02  8.0000000000e+02  0.0000000000e+00 0. 9.
       25     2     1     2     0     0  0.0000000000e+00  0.0000000000e+00  0.0000000000e+00  1.6000000000e+03  1.6000000000e+03 0. 9.
       21     1     3     0   101   102  2.0946868935e+02 -6.4480684587e+02 -4.2467281488e+02  8.0000000000e+02  0.0000000000e+00 0. 9.
       21     1     3     0   102   101 -2.0946868935e+02  6.4480684587e+02  4.2467281488e+02  8.0000000000e+02  0.0000000000e+00 0. 9.
#pdf   11  -11  1.000000e+00  1.000000e+00  1.600000e+03  1.000000e+00  1.000000e+00
</event>
<event>
     5  9999  1.000000e+00  1.600000e+03  8.079897e-03  9.131846e-02
       11    -1     0     0     0     0  0.0000000000e+00  0.0000000000e+00  8.0000000000e+02  8.0000000000e+02  0.0000000000e+00 0. 9.
      -11    -1     0     0     0     0  0.0000000000e+00  0.0000000000e+00 -8.0000000000e+02  8.0000000000e+02  0.0000000000e+00 0. 9.
       25     2     1     2     0     0  0.0000000000e+00  0.0000000000e+00  0.0000000000e+00  1.6000000000e+03  1.6000000000e+03 0. 9.
       21     1     3     0   101   102  2.3287359414e+02 -3.1783122593e+02  6.9624219994e+02  8.0000000000e+02  0.0000000000e+00 0. 9.
       21     1     3     0   102   101 -2.3287359414e+02  3.1783122593e+02 -6.9624219994e+02  8.0000000000e+02  0.0000000000e+00 0. 9.
#pdf   11  -11  1.000000e+00  1.000000e+00  1.600000e+03  1.000000e+00  1.000000e+00
</event>
<event>
     5  9999  1.000000e+00  1.600000e+03  8.079897e-03  9.131846e-02
       11    -1     0     0     0     0  0.0000000000e+00  0.0000000000e+00  8.0000000000e+02  8.0000000000e+02  0.0000000000e+00 0. 9.
      -11    -1     0     0     0     0  0.0000000000e+00  0.0000000000e+00 -8.0000000000e+02  8.0000000000e+02  0.0000000000e+00 0. 9.
       25     2     1     2     0     0  0.0000000000e+00  0.0000000000e+00  0.0000000000e+00  1.6000000000e+03  1.6000000000e+03 0. 9.
       21     1     3     0   101   102 -2.5849150398e+02 -6.0689795056e+02 -4.5261133434e+02  8.0000000000e+02  0.0000000000e+00 0. 9.
       21     1     3     0   102   101  2.5849150398e+02  6.0689795056e+02  4.5261133434e+02  8.0000000000e+02  0.0000000000e+00 0. 9.
#pdf   11  -11  1.000000e+00  1.000000e+00  1.600000e+03  1.000000e+00  1.000000e+00
</event>
<event>
     5  9999  1.000000e+00  1.600000e+03  8.079897e-03  9.131846e-02
       11    -1     0     0     0     0  0.0000000000e+00  0.0000000000e+00  8.0000000000e+02  8.0000000000e+02  0.0000000000e+00 0. 9.
      -11    -1     0     0     0     0  0.0000000000e+00  0.0000000000e+00 -8.0000000000e+02  8.0000000000e+02  0.0000000000e+00 0. 9.
       25     2     1     2     0     0  0.0000000000e+00  0.0000000000e+00  0.0000000000e+00  1.6000000000e+03  1.6000000000e+03 0. 9.
       21     1     3     0   101   102 -6.0748025333e+02 -4.5054804725e+02 -2.6071862023e+02  8.0000000000e+02  0.0000000000e+00 0. 9.
       21     1     3     0   102   101  6.0748025333e+02  4.5054804725e+02  2.6071862023e+02  8.0000000000e+02  0.0000000000e+00 0. 9.
#pdf   11  -11  1.000000e+00  1.000000e+00  1.600000e+03  1.000000e+00  1.000000e+00
</event>
<event>
     5  9999  1.000000e+00  1.600000e+03  8.079897e-03  9.131846e-02
       11    -1     0     0     0     0  0.0000000000e+00  0.0000000000e+00  8.0000000000e+02  8.0000000000e+02  0.0000000000e+00 0. 9.
      -11    -1     0     0     0     0  0.0000000000e+00  0.0000000000e+00 -8.0000000000e+02  8.0000000000e+02  0.0000000000e+00 0. 9.
       25     2     1     2     0     0  0.0000000000e+00  0.0000000000e+00  0.0000000000e+00  1.6000000000e+03  1.6000000000e+03 0. 9.
       21     1     3     0   101   102 -7.6448839147e+02  5.3307180336e+01  2.2959931147e+02  8.0000000000e+02  0.0000000000e+00 0. 9.
       21     1     3     0   102   101  7.6448839147e+02 -5.3307180336e+01 -2.2959931147e+02  8.0000000000e+02  0.0000000000e+00 0. 9.
#pdf   11  -11  1.000000e+00  1.000000e+00  1.600000e+03  1.000000e+00  1.000000e+00
</event>
<event>
     5  9999  1.000000e+00  1.600000e+03  8.079897e-03  9.131846e-02
       11    -1     0     0     0     0  0.0000000000e+00  0.0000000000e+00  8.0000000000e+02  8.0000000000e+02  0.0000000000e+00 0. 9.
      -11    -1     0     0     0     0  0.0000000000e+00  0.0000000000e+00 -8.0000000000e+02  8.0000000000e+02  0.0000000000e+00 0. 9.
       25     2     1     2     0     0  0.0000000000e+00  0.0000000000e+00  0.0000000000e+00  1.6000000000e+03  1.6000000000e+03 0. 9.
       21     1     3     0   101   102  6.6294729342e+02  5.7889830381e+01 -4.4401537551e+02  8.0000000000e+02  0.0000000000e+00 0. 9.
       21     1     3     0   102   101 -6.6294729342e+02 -5.7889830381e+01  4.4401537551e+02  8.0000000000e+02  0.0000000000e+00 0. 9.
#pdf   11  -11  1.000000e+00  1.000000e+00  1.600000e+03  1.000000e+00  1.000000e+00
</event>
<event>
     5  9999  1.000000e+00  1.600000e+03  8.079897e-03  9.131846e-02
       11    -1     0     0     0     0  0.0000000000e+00  0.0000000000e+00  8.0000000000e+02  8.0000000000e+02  0.0000000000e+00 0. 9.
      -11    -1     0     0     0     0  0.0000000000e+00  0.0000000000e+00 -8.0000000000e+02  8.0000000000e+02  0.0000000000e+00 0. 9.
       25     2     1     2     0     0  0.0000000000e+00  0.0000000000e+00  0.0000000000e+00  1.6000000000e+03  1.6000000000e+03 0. 9.
       21     1     3     0   101   102  7.6901090310e+02  1.6079163372e+02 -1.5089162153e+02  8.0000000000e+02  0.0000000000e+00 0. 9.
       21     1     3     0   102   101 -7.6901090310e+02 -1.6079163372e+02  1.5089162153e+02  8.0000000000e+02  0.0000000000e+00 0. 9.
#pdf   11  -11  1.000000e+00  1.000000e+00  1.600000e+03  1.000000e+00  1.000000e+00
</event>
<event>
     5  9999  1.000000e+00  1.600000e+03  8.079897e-03  9.131846e-02
       11    -1     0     0     0     0  0.0000000000e+00  0.0000000000e+00  8.0000000000e+02  8.0000000000e+02  0.0000000000e+00 0. 9.
      -11    -1     0     0     0     0  0.0000000000e+00  0.0000000000e+00 -8.0000000000e+02  8.0000000000e+02  0.0000000000e+00 0. 9.
       25     2     1     2     0     0  0.0000000000e+00  0.0000000000e+00  0.0000000000e+00  1.6000000000e+03  1.6000000000e+03 0. 9.
       21     1     3     0   101   102  2.2504290887e+02 -6.8149978200e+02 -3.5343137424e+02  8.0000000000e+02  0.0000000000e+00 0. 9.
       21     1     3     0   102   101 -2.2504290887e+02  6.8149978200e+02  3.5343137424e+02  8.0000000000e+02  0.0000000000e+00 0. 9.
#pdf   11  -11  1.000000e+00  1.000000e+00  1.600000e+03  1.000000e+00  1.000000e+00
</event>
<event>
     5  9999  1.000000e+00  1.600000e+03  8.079897e-03  9.131846e-02
       11    -1     0     0     0     0  0.0000000000e+00  0.0000000000e+00  8.0000000000e+02  8.0000000000e+02  0.0000000000e+00 0. 9.
      -11    -1     0     0     0     0  0.0000000000e+00  0.0000000000e+00 -8.0000000000e+02  8.0000000000e+02  0.0000000000e+00 0. 9.
       25     2     1     2     0     0  0.0000000000e+00  0.0000000000e+00  0.0000000000e+00  1.6000000000e+03  1.6000000000e+03 0. 9.
       21     1     3     0   101   102  6.0961196343e+02  4.8991639754e+02 -1.6838995654e+02  8.0000000000e+02  0.0000000000e+00 0. 9.
       21     1     3     0   102   101 -6.0961196343e+02 -4.8991639754e+02  1.6838995654e+02  8.0000000000e+02  0.0000000000e+00 0. 9.
#pdf   11  -11  1.000000e+00  1.000000e+00  1.600000e+03  1.000000e+00  1.000000e+00
</event>
<event>
     5  9999  1.000000e+00  1.600000e+03  8.079897e-03  9.131846e-02
       11    -1     0     0     0     0  0.0000000000e+00  0.0000000000e+00  8.0000000000e+02  8.0000000000e+02  0.0000000000e+00 0. 9.
      -11    -1     0     0     0     0  0.0000000000e+00  0.0000000000e+00 -8.0000000000e+02  8.0000000000e+02  0.0000000000e+00 0. 9.
       25     2     1     2     0     0  0.0000000000e+00  0.0000000000e+00  0.0000000000e+00  1.6000000000e+03  1.6000000000e+03 0. 9.
       21     1     3     0   101   102  6.3987932052e+01  2.3582054569e+02  7.6177044757e+02  8.0000000000e+02  0.0000000000e+00 0. 9.
       21     1     3     0   102   101 -6.3987932052e+01 -2.3582054569e+02 -7.6177044757e+02  8.0000000000e+02  0.0000000000e+00 0. 9.
#pdf   11  -11  1.000000e+00  1.000000e+00  1.600000e+03  1.000000e+00  1.000000e+00
</event>
<event>
     5  9999  1.000000e+00  1.600000e+03  8.079897e-03  9.131846e-02
       11    -1     0     0     0     0  0.0000000000e+00  0.0000000000e+00  8.0000000000e+02  8.0000000000e+02  0.0000000000e+00 0. 9.
      -11    -1     0     0     0     0  0.0000000000e+00  0.0000000000e+00 -8.0000000000e+02  8.0000000000e+02  0.0000000000e+00 0. 9.
       25     2     1     2     0     0  0.0000000000e+00  0.0000000000e+00  0.0000000000e+00  1.6000000000e+03  1.6000000000e+03 0. 9.
       21     1     3     0   101   102 -5.8172640122e+02  5.2104684907e+02 -1.7350670073e+02  8.0000000000e+02  0.0000000000e+00 0. 9.
       21     1     3     0   102   101  5.8172640122e+02 -5.2104684907e+02  1.7350670073e+02  8.0000000000e+02  0.0000000000e+00 0. 9.
#pdf   11  -11  1.000000e+00  1.000000e+00  1.600000e+03  1.000000e+00  1.000000e+00
</event>
<event>
     5  9999  1.000000e+00  1.600000e+03  8.079897e-03  9.131846e-02
       11    -1     0     0     0     0  0.0000000000e+00  0.0000000000e+00  8.0000000000e+02  8.0000000000e+02  0.0000000000e+00 0. 9.
      -11    -1     0     0     0     0  0.0000000000e+00  0.0000000000e+00 -8.0000000000e+02  8.0000000000e+02  0.0000000000e+00 0. 9.
       25     2     1     2     0     0  0.0000000000e+00  0.0000000000e+00  0.0000000000e+00  1.6000000000e+03  1.6000000000e+03 0. 9.
       21     1     3     0   101   102  3.7158188173e+02 -6.8690893991e+02 -1.7344455437e+02  8.0000000000e+02  0.0000000000e+00 0. 9.
       21     1     3     0   102   101 -3.7158188173e+02  6.8690893991e+02  1.7344455437e+02  8.0000000000e+02  0.0000000000e+00 0. 9.
#pdf   11  -11  1.000000e+00  1.000000e+00  1.600000e+03  1.000000e+00  1.000000e+00
</event>
<event>
     5  9999  1.000000e+00  1.600000e+03  8.079897e-03  9.131846e-02
       11    -1     0     0     0     0  0.0000000000e+00  0.0000000000e+00  8.0000000000e+02  8.0000000000e+02  0.0000000000e+00 0. 9.
      -11    -1     0     0     0     0  0.0000000000e+00  0.0000000000e+00 -8.0000000000e+02  8.0000000000e+02  0.0000000000e+00 0. 9.
       25     2     1     2     0     0  0.0000000000e+00  0.0000000000e+00  0.0000000000e+00  1.6000000000e+03  1.6000000000e+03 0. 9.
       21     1     3     0   101   102 -1.6680980309e-01 -6.2472366904e+02 -4.9972023125e+02  8.0000000000e+02  0.0000000000e+00 0. 9.
       21     1     3     0   102   101  1.6680980309e-01  6.2472366904e+02  4.9972023125e+02  8.0000000000e+02  0.0000000000e+00 0. 9.
#pdf   11  -11  1.000000e+00  1.000000e+00  1.600000e+03  1.000000e+00  1.000000e+00
</event>
<event>
     5  9999  1.000000e+00  1.600000e+03  8.079897e-03  9.131846e-02
       11    -1     0     0     0     0  0.0000000000e+00  0.0000000000e+00  8.0000000000e+02  8.0000000000e+02  0.0000000000e+00 0. 9.
      -11    -1     0     0     0     0  0.0000000000e+00  0.0000000000e+00 -8.0000000000e+02  8.0000000000e+02  0.0000000000e+00 0. 9.
       25     2     1     2     0     0  0.0000000000e+00  0.0000000000e+00  0.0000000000e+00  1.6000000000e+03  1.6000000000e+03 0. 9.
       21     1     3     0   101   102 -4.5072184543e+02 -6.0839341801e+02 -2.5827749994e+02  8.0000000000e+02  0.0000000000e+00 0. 9.
       21     1     3     0   102   101  4.5072184543e+02  6.0839341801e+02  2.5827749994e+02  8.0000000000e+02  0.0000000000e+00 0. 9.
#pdf   11  -11  1.000000e+00  1.000000e+00  1.600000e+03  1.000000e+00  1.000000e+00
</event>
<event>
     5  9999  1.000000e+00  1.600000e+03  8.079897e-03  9.131846e-02
       11    -1     0     0     0     0  0.0000000000e+00  0.0000000000e+00  8.0000000000e+02  8.0000000000e+02  0.0000000000e+00 0. 9.
      -11    -1     0     0     0     0  0.0000000000e+00  0.0000000000e+00 -8.0000000000e+02  8.0000000000e+02  0.0000000000e+00 0. 9.
       25     2     1     2     0     0  0.0000000000e+00  0.0000000000e+00  0.0000000000e+00  1.6000000000e+03  1.6000000000e+03 0. 9.
       21     1     3     0   101   102  5.8378089624e+02  5.0360863543e+02  2.1349053259e+02  8.0000000000e+02  0.0000000000e+00 0. 9.
       21     1     3     0   102   101 -5.8378089624e+02 -5.0360863543e+02 -2.1349053259e+02  8.0000000000e+02  0.0000000000e+00 0. 9.
#pdf   11  -11  1.000000e+00  1.000000e+00  1.600000e+03  1.000000e+00  1.000000e+00
</event>
<event>
     5  9999  1.000000e+00  1.600000e+03  8.079897e-03  9.131846e-02
       11    -1     0     0     0     0  0.0000000000e+00  0.0000000000e+00  8.0000000000e+02  8.0000000000e+02  0.0000000000e+00 0. 9.
      -11    -1     0     0     0     0  0.0000000000e+00  0.0000000000e+00 -8.0000000000e+02  8.0000000000e+02  0.0000000000e+00 0. 9.
       25     2     1     2     0     0  0.0000000000e+00  0.0000000000e+00  0.0000000000e+00  1.6000000000e+03  1.6000000000e+03 0. 9.
       21     1     3     0   101   102  4.7513271479e+02  6.4077848607e+02 -6.0430415556e+01  8.0000000000e+02  0.0000000000e+00 0. 9.
       21     1     3     0   102   101 -4.7513271479e+02 -6.4077848607e+02  6.0430415556e+01  8.0000000000e+02  0.0000000000e+00 0. 9.
#pdf   11  -11  1.000000e+00  1.000000e+00  1.600000e+03  1.000000e+00  1.000000e+00
</event>
<event>
     5  9999  1.000000e+00  1.600000e+03  8.079897e-03  9.131846e-02
       11    -1     0     0     0     0  0.0000000000e+00  0.0000000000e+00  8.0000000000e+02  8.0000000000e+02  0.0000000000e+00 0. 9.
      -11    -1     0     0     0     0  0.0000000000e+00  0.0000000000e+00 -8.0000000000e+02  8.0000000000e+02  0.0000000000e+00 0. 9.
       25     2     1     2     0     0  0.0000000000e+00  0.0000000000e+00  0.0000000000e+00  1.6000000000e+03  1.6000000000e+03 0. 9.
       21     1     3     0   101   102 -1.1559762024e+02 -6.1608880829e+02 -4.9706314539e+02  8.0000000000e+02  0.0000000000e+00 0. 9.
       21     1     3     0   102   101  1.1559762024e+02  6.1608880829e+02  4.9706314539e+02  8.0000000000e+02  0.0000000000e+00 0. 9.
#pdf   11  -11  1.000000e+00  1.000000e+00  1.600000e+03  1.000000e+00  1.000000e+00
</event>
<event>
     5  9999  1.000000e+00  1.600000e+03  8.079897e-03  9.131846e-02
       11    -1     0     0     0     0  0.0000000000e+00  0.0000000000e+00  8.0000000000e+02  8.0000000000e+02  0.0000000000e+00 0. 9.
      -11    -1     0     0     0     0  0.0000000000e+00  0.0000000000e+00 -8.0000000000e+02  8.0000000000e+02  0.0000000000e+00 0. 9.
       25     2     1     2     0     0  0.0000000000e+00  0.0000000000e+00  0.0000000000e+00  1.6000000000e+03  1.6000000000e+03 0. 9.
       21     1     3     0   101   102  1.0842259991e+02 -4.3305898952e+02 -6.6385574595e+02  8.0000000000e+02  0.0000000000e+00 0. 9.
       21     1     3     0   102   101 -1.0842259991e+02  4.3305898952e+02  6.6385574595e+02  8.0000000000e+02  0.0000000000e+00 0. 9.
#pdf   11  -11  1.000000e+00  1.000000e+00  1.600000e+03  1.000000e+00  1.000000e+00
</event>
<event>
     5  9999  1.000000e+00  1.600000e+03  8.079897e-03  9.131846e-02
       11    -1     0     0     0     0  0.0000000000e+00  0.0000000000e+00  8.0000000000e+02  8.0000000000e+02  0.0000000000e+00 0. 9.
      -11    -1     0     0     0     0  0.0000000000e+00  0.0000000000e+00 -8.0000000000e+02  8.0000000000e+02  0.0000000000e+00 0. 9.
       25     2     1     2     0     0  0.0000000000e+00  0.0000000000e+00  0.0000000000e+00  1.6000000000e+03  1.6000000000e+03 0. 9.
       21     1     3     0   101   102  7.1794068728e+02  3.1963056046e+02  1.4965785769e+02  8.0000000000e+02  0.0000000000e+00 0. 9.
       21     1     3     0   102   101 -7.1794068728e+02 -3.1963056046e+02 -1.4965785769e+02  8.0000000000e+02  0.0000000000e+00 0. 9.
#pdf   11  -11  1.000000e+00  1.000000e+00  1.600000e+03  1.000000e+00  1.000000e+00
</event>
<event>
     5  9999  1.000000e+00  1.600000e+03  8.079897e-03  9.131846e-02
       11    -1     0     0     0     0  0.0000000000e+00  0.0000000000e+00  8.0000000000e+02  8.0000000000e+02  0.0000000000e+00 0. 9.
      -11    -1     0     0     0     0  0.0000000000e+00  0.0000000000e+00 -8.0000000000e+02  8.0000000000e+02  0.0000000000e+00 0. 9.
       25     2     1     2     0     0  0.0000000000e+00  0.0000000000e+00  0.0000000000e+00  1.6000000000e+03  1.6000000000e+03 0. 9.
       21     1     3     0   101   102  2.1940036926e+02 -7.4411830759e+02  1.9532389069e+02  8.0000000000e+02  0.0000000000e+00 0. 9.
       21     1     3     0   102   101 -2.1940036926e+02  7.4411830759e+02 -1.9532389069e+02  8.0000000000e+02  0.0000000000e+00 0. 9.
#pdf   11  -11  1.000000e+00  1.000000e+00  1.600000e+03  1.000000e+00  1.000000e+00
</event>
<event>
     5  9999  1.000000e+00  1.600000e+03  8.079897e-03  9.131846e-02
       11    -1     0     0     0     0  0.0000000000e+00  0.0000000000e+00  8.0000000000e+02  8.0000000000e+02  0.0000000000e+00 0. 9.
      -11    -1     0     0     0     0  0.0000000000e+00  0.0000000000e+00 -8.0000000000e+02  8.0000000000e+02  0.0000000000e+00 0. 9.
       25     2     1     2     0     0  0.0000000000e+00  0.0000000000e+00  0.0000000000e+00  1.6000000000e+03  1.6000000000e+03 0. 9.
       21     1     3     0   101   102  5.1867869870e+02 -5.1759516521e+02 -3.2104151207e+02  8.0000000000e+02  0.0000000000e+00 0. 9.
       21     1     3     0   102   101 -5.1867869870e+02  5.1759516521e+02  3.2104151207e+02  8.0000000000e+02  0.0000000000e+00 0. 9.
#pdf   11  -11  1.000000e+00  1.000000e+00  1.600000e+03  1.000000e+00  1.000000e+00
</event>
<event>
     5  9999  1.000000e+00  1.600000e+03  8.079897e-03  9.131846e-02
       11    -1     0     0     0     0  0.0000000000e+00  0.0000000000e+00  8.0000000000e+02  8.0000000000e+02  0.0000000000e+00 0. 9.
      -11    -1     0     0     0     0  0.0000000000e+00  0.0000000000e+00 -8.0000000000e+02  8.0000000000e+02  0.0000000000e+00 0. 9.
       25     2     1     2     0     0  0.0000000000e+00  0.0000000000e+00  0.0000000000e+00  1.6000000000e+03  1.6000000000e+03 0. 9.
       21     1     3     0   101   102 -6.7652996827e+02  1.7927148970e+02 -3.8751636741e+02  8.0000000000e+02  0.0000000000e+00 0. 9.
       21     1     3     0   102   101  6.7652996827e+02 -1.7927148970e+02  3.8751636741e+02  8.0000000000e+02  0.0000000000e+00 0. 9.
#pdf   11  -11  1.000000e+00  1.000000e+00  1.600000e+03  1.000000e+00  1.000000e+00
</event>
<event>
     5  9999  1.000000e+00  1.600000e+03  8.079897e-03  9.131846e-02
       11    -1     0     0     0     0  0.0000000000e+00  0.0000000000e+00  8.0000000000e+02  8.0000000000e+02  0.0000000000e+00 0. 9.
      -11    -1     0     0     0     0  0.0000000000e+00  0.0000000000e+00 -8.0000000000e+02  8.0000000000e+02  0.0000000000e+00 0. 9.
       25     2     1     2     0     0  0.0000000000e+00  0.0000000000e+00  0.0000000000e+00  1.6000000000e+03  1.6000000000e+03 0. 9.
       21     1     3     0   101   102 -2.1752602561e+02  1.7237886313e+02  7.5031190563e+02  8.0000000000e+02  0.0000000000e+00 0. 9.
       21     1     3     0   102   101  2.1752602561e+02 -1.7237886313e+02 -7.5031190563e+02  8.0000000000e+02  0.0000000000e+00 0. 9.
#pdf   11  -11  1.000000e+00  1.000000e+00  1.600000e+03  1.000000e+00  1.000000e+00
</event>
<event>
     5  9999  1.000000e+00  1.600000e+03  8.079897e-03  9.131846e-02
       11    -1     0     0     0     0  0.0000000000e+00  0.0000000000e+00  8.0000000000e+02  8.0000000000e+02  0.0000000000e+00 0. 9.
      -11    -1     0     0     0     0  0.0000000000e+00  0.0000000000e+00 -8.0000000000e+02  8.0000000000e+02  0.0000000000e+00 0. 9.
       25     2     1     2     0     0  0.0000000000e+00  0.0000000000e+00  0.0000000000e+00  1.6000000000e+03  1.6000000000e+03 0. 9.
       21     1     3     0   101   102  6.2220758974e+01  6.7241401893e+02  4.2893818237e+02  8.0000000000e+02  0.0000000000e+00 0. 9.
       21     1     3     0   102   101 -6.2220758974e+01 -6.7241401893e+02 -4.2893818237e+02  8.0000000000e+02  0.0000000000e+00 0. 9.
#pdf   11  -11  1.000000e+00  1.000000e+00  1.600000e+03  1.000000e+00  1.000000e+00
</event>
<event>
     5  9999  1.000000e+00  1.600000e+03  8.079897e-03  9.131846e-02
       11    -1     0     0     0     0  0.0000000000e+00  0.0000000000e+00  8.0000000000e+02  8.0000000000e+02  0.0000000000e+00 0. 9.
      -11    -1     0     0     0     0  0.0000000000e+00  0.0000000000e+00 -8.0000000000e+02  8.0000000000e+02  0.0000000000e+00 0. 9.
       25     2     1     2     0     0  0.0000000000e+00  0.0000000000e+00  0.0000000000e+00  1.6000000000e+03  1.6000000000e+03 0. 9.
       21     1     3     0   101   102  4.7363716428e+01 -3.5232711091e+02 -7.1667446256e+02  8.0000000000e+02  0.0000000000e+00 0. 9.
       21     1     3     0   102   101 -4.7363716428e+01  3.5232711091e+02  7.1667446256e+02  8.0000000000e+02  0.0000000000e+00 0. 9.
#pdf   11  -11  1.000000e+00  1.000000e+00  1.600000e+03  1.000000e+00  1.000000e+00
</event>
<event>
     5  9999  1.000000e+00  1.600000e+03  8.079897e-03  9.131846e-02
       11    -1     0     0     0     0  0.0000000000e+00  0.0000000000e+00  8.0000000000e+02  8.0000000000e+02  0.0000000000e+00 0. 9.
      -11    -1     0     0     0     0  0.0000000000e+00  0.0000000000e+00 -8.0000000000e+02  8.0000000000e+02  0.0000000000e+00 0. 9.
       25     2     1     2     0     0  0.0000000000e+00  0.0000000000e+00  0.0000000000e+00  1.6000000000e+03  1.6000000000e+03 0. 9.
       21     1     3     0   101   102  3.6928315095e+02  4.0015597313e+02  5.8609312536e+02  8.0000000000e+02  0.0000000000e+00 0. 9.
       21     1     3     0   102   101 -3.6928315095e+02 -4.0015597313e+02 -5.8609312536e+02  8.0000000000e+02  0.0000000000e+00 0. 9.
#pdf   11  -11  1.000000e+00  1.000000e+00  1.600000e+03  1.000000e+00  1.000000e+00
</event>
<event>
     5  9999  1.000000e+00  1.600000e+03  8.079897e-03  9.131846e-02
       11    -1     0     0     0     0  0.0000000000e+00  0.0000000000e+00  8.0000000000e+02  8.0000000000e+02  0.0000000000e+00 0. 9.
      -11    -1     0     0     0     0  0.0000000000e+00  0.0000000000e+00 -8.0000000000e+02  8.0000000000e+02  0.0000000000e+00 0. 9.
       25     2     1     2     0     0  0.0000000000e+00  0.0000000000e+00  0.0000000000e+00  1.6000000000e+03  1.6000000000e+03 0. 9.
       21     1     3     0   101   102 -1.5352489421e+02  7.8107371947e+02  7.9711678048e+01  8.0000000000e+02  0.0000000000e+00 0. 9.
       21     1     3     0   102   101  1.5352489421e+02 -7.8107371947e+02 -7.9711678048e+01  8.0000000000e+02  0.0000000000e+00 0. 9.
#pdf   11  -11  1.000000e+00  1.000000e+00  1.600000e+03  1.000000e+00  1.000000e+00
</event>
<event>
     5  9999  1.000000e+00  1.600000e+03  8.079897e-03  9.131846e-02
       11    -1     0     0     0     0  0.0000000000e+00  0.0000000000e+00  8.0000000000e+02  8.0000000000e+02  0.0000000000e+00 0. 9.
      -11    -1     0     0     0     0  0.0000000000e+00  0.0000000000e+00 -8.0000000000e+02  8.0000000000e+02  0.0000000000e+00 0. 9.
       25     2     1     2     0     0  0.0000000000e+00  0.0000000000e+00  0.0000000000e+00  1.6000000000e+03  1.6000000000e+03 0. 9.
       21     1     3     0   101   102 -8.6309277475e+01  7.9504038317e+02  2.1482498600e+01  8.0000000000e+02  0.0000000000e+00 0. 9.
       21     1     3     0   102   101  8.6309277475e+01 -7.9504038317e+02 -2.1482498600e+01  8.0000000000e+02  0.0000000000e+00 0. 9.
#pdf   11  -11  1.000000e+00  1.000000e+00  1.600000e+03  1.000000e+00  1.000000e+00
</event>
<event>
     5  9999  1.000000e+00  1.600000e+03  8.079897e-03  9.131846e-02
       11    -1     0     0     0     0  0.0000000000e+00  0.0000000000e+00  8.0000000000e+02  8.0000000000e+02  0.0000000000e+00 0. 9.
      -11    -1     0     0     0     0  0.0000000000e+00  0.0000000000e+00 -8.0000000000e+02  8.0000000000e+02  0.0000000000e+00 0. 9.
       25     2     1     2     0     0  0.0000000000e+00  0.0000000000e+00  0.0000000000e+00  1.6000000000e+03  1.6000000000e+03 0. 9.
       21     1     3     0   101   102 -3.3866382035e+02 -7.0461803654e+02 -1.6976524785e+02  8.0000000000e+02  0.0000000000e+00 0. 9.
       21     1     3     0   102   101  3.3866382035e+02  7.0461803654e+02  1.6976524785e+02  8.0000000000e+02  0.0000000000e+00 0. 9.
#pdf   11  -11  1.000000e+00  1.000000e+00  1.600000e+03  1.000000e+00  1.000000e+00
</event>
<event>
     5  9999  1.000000e+00  1.600000e+03  8.079897e-03  9.131846e-02
       11    -1     0     0     0     0  0.0000000000e+00  0.0000000000e+00  8.0000000000e+02  8.0000000000e+02  0.0000000000e+00 0. 9.
      -11    -1     0     0     0     0  0.0000000000e+00  0.0000000000e+00 -8.0000000000e+02  8.0000000000e+02  0.0000000000e+00 0. 9.
       25     2     1     2     0     0  0.0000000000e+00  0.0000000000e+00  0.0000000000e+00  1.6000000000e+03  1.6000000000e+03 0. 9.
       21     1     3     0   101   102  6.2146502380e+02  1.7887663883e+02  4.7093988181e+02  8.0000000000e+02  0.0000000000e+00 0. 9.
       21     1     3     0   102   101 -6.2146502380e+02 -1.7887663883e+02 -4.7093988181e+02  8.0000000000e+02  0.0000000000e+00 0. 9.
#pdf   11  -11  1.000000e+00  1.000000e+00  1.600000e+03  1.000000e+00  1.000000e+00
</event>
<event>
     5  9999  1.000000e+00  1.600000e+03  8.079897e-03  9.131846e-02
       11    -1     0     0     0     0  0.0000000000e+00  0.0000000000e+00  8.0000000000e+02  8.0000000000e+02  0.0000000000e+00 0. 9.
      -11    -1     0     0     0     0  0.0000000000e+00  0.0000000000e+00 -8.0000000000e+02  8.0000000000e+02  0.0000000000e+00 0. 9.
       25     2     1     2     0     0  0.0000000000e+00  0.0000000000e+00  0.0000000000e+00  1.6000000000e+03  1.6000000000e+03 0. 9.
       21     1     3     0   101   102  4.7015350896e+01  7.8385897190e+01  7.9476110115e+02  8.0000000000e+02  0.0000000000e+00 0. 9.
       21     1     3     0   102   101 -4.7015350896e+01 -7.8385897190e+01 -7.9476110115e+02  8.0000000000e+02  0.0000000000e+00 0. 9.
#pdf   11  -11  1.000000e+00  1.000000e+00  1.600000e+03  1.000000e+00  1.000000e+00
</event>
</LesHouchesEvents>
