<LesHouchesEvents version="1.0">
<!--
  File written by Pythia8::LHAup on 06 Jun 2015 at 17:14:43
-->
<init>
  11  -11  2.500000e+01  2.500000e+01  0  0  0  0  3  1
  2.788666e-04  0.000000e+00  1.000000e+00   9999
</init>
<event>
     5  9999  1.000000e+00  5.000000e+01  7.764622e-03  1.436968e-01
       11    -1     0     0     0     0  0.0000000000e+00  0.0000000000e+00  2.5000000000e+01  2.5000000000e+01  0.0000000000e+00 0. 9.
      -11    -1     0     0     0     0  0.0000000000e+00  0.0000000000e+00 -2.5000000000e+01  2.5000000000e+01  0.0000000000e+00 0. 9.
       25     2     1     2     0     0  0.0000000000e+00  0.0000000000e+00  0.0000000000e+00  5.0000000000e+01  5.0000000000e+01 0. 9.
       21     1     3     0   101   102 -3.9881874879e+00 -2.0966971351e+01  1.3018466613e+01  2.5000000000e+01  0.0000000000e+00 0. 9.
       21     1     3     0   102   101  3.9881874879e+00  2.0966971351e+01 -1.3018466613e+01  2.5000000000e+01  0.0000000000e+00 0. 9.
#pdf   11  -11  1.000000e+00  1.000000e+00  5.000000e+01  1.000000e+00  1.000000e+00
</event>
<event>
     5  9999  1.000000e+00  5.000000e+01  7.764622e-03  1.436968e-01
       11    -1     0     0     0     0  0.0000000000e+00  0.0000000000e+00  2.5000000000e+01  2.5000000000e+01  0.0000000000e+00 0. 9.
      -11    -1     0     0     0     0  0.0000000000e+00  0.0000000000e+00 -2.5000000000e+01  2.5000000000e+01  0.0000000000e+00 0. 9.
       25     2     1     2     0     0  0.0000000000e+00  0.0000000000e+00  0.0000000000e+00  5.0000000000e+01  5.0000000000e+01 0. 9.
       21     1     3     0   101   102  1.1414821866e+01  1.7452742724e+00  2.2173314129e+01  2.5000000000e+01  0.0000000000e+00 0. 9.
       21     1     3     0   102   101 -1.1414821866e+01 -1.7452742724e+00 -2.2173314129e+01  2.5000000000e+01  0.0000000000e+00 0. 9.
#pdf   11  -11  1.000000e+00  1.000000e+00  5.000000e+01  1.000000e+00  1.000000e+00
</event>
<event>
     5  9999  1.000000e+00  5.000000e+01  7.764622e-03  1.436968e-01
       11    -1     0     0     0     0  0.0000000000e+00  0.0000000000e+00  2.5000000000e+01  2.5000000000e+01  0.0000000000e+00 0. 9.
      -11    -1     0     0     0     0  0.0000000000e+00  0.0000000000e+00 -2.5000000000e+01  2.5000000000e+01  0.0000000000e+00 0. 9.
       25     2     1     2     0     0  0.0000000000e+00  0.0000000000e+00  0.0000000000e+00  5.0000000000e+01  5.0000000000e+01 0. 9.
       21     1     3     0   101   102 -2.3200411465e+01  8.1742355491e+00  4.4634942639e+00  2.5000000000e+01  0.0000000000e+00 0. 9.
       21     1     3     0   102   101  2.3200411465e+01 -8.1742355491e+00 -4.4634942639e+00  2.5000000000e+01  0.0000000000e+00 0. 9.
#pdf   11  -11  1.000000e+00  1.000000e+00  5.000000e+01  1.000000e+00  1.000000e+00
</event>
<event>
     5  9999  1.000000e+00  5.000000e+01  7.764622e-03  1.436968e-01
       11    -1     0     0     0     0  0.0000000000e+00  0.0000000000e+00  2.5000000000e+01  2.5000000000e+01  0.0000000000e+00 0. 9.
      -11    -1     0     0     0     0  0.0000000000e+00  0.0000000000e+00 -2.5000000000e+01  2.5000000000e+01  0.0000000000e+00 0. 9.
       25     2     1     2     0     0  0.0000000000e+00  0.0000000000e+00  0.0000000000e+00  5.0000000000e+01  5.0000000000e+01 0. 9.
       21     1     3     0   101   102  2.3802412600e+01 -5.4753304862e+00 -5.3353453930e+00  2.5000000000e+01  0.0000000000e+00 0. 9.
       21     1     3     0   102   101 -2.3802412600e+01  5.4753304862e+00  5.3353453930e+00  2.5000000000e+01  0.0000000000e+00 0. 9.
#pdf   11  -11  1.000000e+00  1.000000e+00  5.000000e+01  1.000000e+00  1.000000e+00
</event>
<event>
     5  9999  1.000000e+00  5.000000e+01  7.764622e-03  1.436968e-01
       11    -1     0     0     0     0  0.0000000000e+00  0.0000000000e+00  2.5000000000e+01  2.5000000000e+01  0.0000000000e+00 0. 9.
      -11    -1     0     0     0     0  0.0000000000e+00  0.0000000000e+00 -2.5000000000e+01  2.5000000000e+01  0.0000000000e+00 0. 9.
       25     2     1     2     0     0  0.0000000000e+00  0.0000000000e+00  0.0000000000e+00  5.0000000000e+01  5.0000000000e+01 0. 9.
       21     1     3     0   101   102  2.3423000730e+00 -1.4928169240e+01 -1.9916410156e+01  2.5000000000e+01  0.0000000000e+00 0. 9.
       21     1     3     0   102   101 -2.3423000730e+00  1.4928169240e+01  1.9916410156e+01  2.5000000000e+01  0.0000000000e+00 0. 9.
#pdf   11  -11  1.000000e+00  1.000000e+00  5.000000e+01  1.000000e+00  1.000000e+00
</event>
<event>
     5  9999  1.000000e+00  5.000000e+01  7.764622e-03  1.436968e-01
       11    -1     0     0     0     0  0.0000000000e+00  0.0000000000e+00  2.5000000000e+01  2.5000000000e+01  0.0000000000e+00 0. 9.
      -11    -1     0     0     0     0  0.0000000000e+00  0.0000000000e+00 -2.5000000000e+01  2.5000000000e+01  0.0000000000e+00 0. 9.
       25     2     1     2     0     0  0.0000000000e+00  0.0000000000e+00  0.0000000000e+00  5.0000000000e+01  5.0000000000e+01 0. 9.
       21     1     3     0   101   102 -1.2424259305e+00  1.1894017528e+00  2.4940763847e+01  2.5000000000e+01  0.0000000000e+00 0. 9.
       21     1     3     0   102   101  1.2424259305e+00 -1.1894017528e+00 -2.4940763847e+01  2.5000000000e+01  0.0000000000e+00 0. 9.
#pdf   11  -11  1.000000e+00  1.000000e+00  5.000000e+01  1.000000e+00  1.000000e+00
</event>
<event>
     5  9999  1.000000e+00  5.000000e+01  7.764622e-03  1.436968e-01
       11    -1     0     0     0     0  0.0000000000e+00  0.0000000000e+00  2.5000000000e+01  2.5000000000e+01  0.0000000000e+00 0. 9.
      -11    -1     0     0     0     0  0.0000000000e+00  0.0000000000e+00 -2.5000000000e+01  2.5000000000e+01  0.0000000000e+00 0. 9.
       25     2     1     2     0     0  0.0000000000e+00  0.0000000000e+00  0.0000000000e+00  5.0000000000e+01  5.0000000000e+01 0. 9.
       21     1     3     0   101   102  2.0248040679e+00  2.3630722604e+01 -7.9050058634e+00  2.5000000000e+01  0.0000000000e+00 0. 9.
       21     1     3     0   102   101 -2.0248040679e+00 -2.3630722604e+01  7.9050058634e+00  2.5000000000e+01  0.0000000000e+00 0. 9.
#pdf   11  -11  1.000000e+00  1.000000e+00  5.000000e+01  1.000000e+00  1.000000e+00
</event>
<event>
     5  9999  1.000000e+00  5.000000e+01  7.764622e-03  1.436968e-01
       11    -1     0     0     0     0  0.0000000000e+00  0.0000000000e+00  2.5000000000e+01  2.5000000000e+01  0.0000000000e+00 0. 9.
      -11    -1     0     0     0     0  0.0000000000e+00  0.0000000000e+00 -2.5000000000e+01  2.5000000000e+01  0.0000000000e+00 0. 9.
       25     2     1     2     0     0  0.0000000000e+00  0.0000000000e+00  0.0000000000e+00  5.0000000000e+01  5.0000000000e+01 0. 9.
       21     1     3     0   101   102 -4.4742201412e+00 -6.8694941681e+00  2.3617607923e+01  2.5000000000e+01  0.0000000000e+00 0. 9.
       21     1     3     0   102   101  4.4742201412e+00  6.8694941681e+00 -2.3617607923e+01  2.5000000000e+01  0.0000000000e+00 0. 9.
#pdf   11  -11  1.000000e+00  1.000000e+00  5.000000e+01  1.000000e+00  1.000000e+00
</event>
<event>
     5  9999  1.000000e+00  5.000000e+01  7.764622e-03  1.436968e-01
       11    -1     0     0     0     0  0.0000000000e+00  0.0000000000e+00  2.5000000000e+01  2.5000000000e+01  0.0000000000e+00 0. 9.
      -11    -1     0     0     0     0  0.0000000000e+00  0.0000000000e+00 -2.5000000000e+01  2.5000000000e+01  0.0000000000e+00 0. 9.
       25     2     1     2     0     0  0.0000000000e+00  0.0000000000e+00  0.0000000000e+00  5.0000000000e+01  5.0000000000e+01 0. 9.
       21     1     3     0   101   102 -4.9699540984e+00 -2.3820166386e+01  5.7357850040e+00  2.5000000000e+01  0.0000000000e+00 0. 9.
       21     1     3     0   102   101  4.9699540984e+00  2.3820166386e+01 -5.7357850040e+00  2.5000000000e+01  0.0000000000e+00 0. 9.
#pdf   11  -11  1.000000e+00  1.000000e+00  5.000000e+01  1.000000e+00  1.000000e+00
</event>
<event>
     5  9999  1.000000e+00  5.000000e+01  7.764622e-03  1.436968e-01
       11    -1     0     0     0     0  0.0000000000e+00  0.0000000000e+00  2.5000000000e+01  2.5000000000e+01  0.0000000000e+00 0. 9.
      -11    -1     0     0     0     0  0.0000000000e+00  0.0000000000e+00 -2.5000000000e+01  2.5000000000e+01  0.0000000000e+00 0. 9.
       25     2     1     2     0     0  0.0000000000e+00  0.0000000000e+00  0.0000000000e+00  5.0000000000e+01  5.0000000000e+01 0. 9.
       21     1     3     0   101   102  2.0142736107e+00  1.6792573742e+01  1.8410653680e+01  2.5000000000e+01  0.0000000000e+00 0. 9.
       21     1     3     0   102   101 -2.0142736107e+00 -1.6792573742e+01 -1.8410653680e+01  2.5000000000e+01  0.0000000000e+00 0. 9.
#pdf   11  -11  1.000000e+00  1.000000e+00  5.000000e+01  1.000000e+00  1.000000e+00
</event>
<event>
     5  9999  1.000000e+00  5.000000e+01  7.764622e-03  1.436968e-01
       11    -1     0     0     0     0  0.0000000000e+00  0.0000000000e+00  2.5000000000e+01  2.5000000000e+01  0.0000000000e+00 0. 9.
      -11    -1     0     0     0     0  0.0000000000e+00  0.0000000000e+00 -2.5000000000e+01  2.5000000000e+01  0.0000000000e+00 0. 9.
       25     2     1     2     0     0  0.0000000000e+00  0.0000000000e+00  0.0000000000e+00  5.0000000000e+01  5.0000000000e+01 0. 9.
       21     1     3     0   101   102  2.1778195130e+01 -1.1862811375e+01  3.1597346670e+00  2.5000000000e+01  0.0000000000e+00 0. 9.
       21     1     3     0   102   101 -2.1778195130e+01  1.1862811375e+01 -3.1597346670e+00  2.5000000000e+01  0.0000000000e+00 0. 9.
#pdf   11  -11  1.000000e+00  1.000000e+00  5.000000e+01  1.000000e+00  1.000000e+00
</event>
<event>
     5  9999  1.000000e+00  5.000000e+01  7.764622e-03  1.436968e-01
       11    -1     0     0     0     0  0.0000000000e+00  0.0000000000e+00  2.5000000000e+01  2.5000000000e+01  0.0000000000e+00 0. 9.
      -11    -1     0     0     0     0  0.0000000000e+00  0.0000000000e+00 -2.5000000000e+01  2.5000000000e+01  0.0000000000e+00 0. 9.
       25     2     1     2     0     0  0.0000000000e+00  0.0000000000e+00  0.0000000000e+00  5.0000000000e+01  5.0000000000e+01 0. 9.
       21     1     3     0   101   102 -2.3903319078e+01  4.5818209706e+00  5.7129899033e+00  2.5000000000e+01  0.0000000000e+00 0. 9.
       21     1     3     0   102   101  2.3903319078e+01 -4.5818209706e+00 -5.7129899033e+00  2.5000000000e+01  0.0000000000e+00 0. 9.
#pdf   11  -11  1.000000e+00  1.000000e+00  5.000000e+01  1.000000e+00  1.000000e+00
</event>
<event>
     5  9999  1.000000e+00  5.000000e+01  7.764622e-03  1.436968e-01
       11    -1     0     0     0     0  0.0000000000e+00  0.0000000000e+00  2.5000000000e+01  2.5000000000e+01  0.0000000000e+00 0. 9.
      -11    -1     0     0     0     0  0.0000000000e+00  0.0000000000e+00 -2.5000000000e+01  2.5000000000e+01  0.0000000000e+00 0. 9.
       25     2     1     2     0     0  0.0000000000e+00  0.0000000000e+00  0.0000000000e+00  5.0000000000e+01  5.0000000000e+01 0. 9.
       21     1     3     0   101   102 -7.5434321182e-01  2.1781846451e+01 -1.2246719214e+01  2.5000000000e+01  0.0000000000e+00 0. 9.
       21     1     3     0   102   101  7.5434321182e-01 -2.1781846451e+01  1.2246719214e+01  2.5000000000e+01  0.0000000000e+00 0. 9.
#pdf   11  -11  1.000000e+00  1.000000e+00  5.000000e+01  1.000000e+00  1.000000e+00
</event>
<event>
     5  9999  1.000000e+00  5.000000e+01  7.764622e-03  1.436968e-01
       11    -1     0     0     0     0  0.0000000000e+00  0.0000000000e+00  2.5000000000e+01  2.5000000000e+01  0.0000000000e+00 0. 9.
      -11    -1     0     0     0     0  0.0000000000e+00  0.0000000000e+00 -2.5000000000e+01  2.5000000000e+01  0.0000000000e+00 0. 9.
       25     2     1     2     0     0  0.0000000000e+00  0.0000000000e+00  0.0000000000e+00  5.0000000000e+01  5.0000000000e+01 0. 9.
       21     1     3     0   101   102  1.3989760630e+01  2.0236100669e+01  4.4482386650e+00  2.5000000000e+01  0.0000000000e+00 0. 9.
       21     1     3     0   102   101 -1.3989760630e+01 -2.0236100669e+01 -4.4482386650e+00  2.5000000000e+01  0.0000000000e+00 0. 9.
#pdf   11  -11  1.000000e+00  1.000000e+00  5.000000e+01  1.000000e+00  1.000000e+00
</event>
<event>
     5  9999  1.000000e+00  5.000000e+01  7.764622e-03  1.436968e-01
       11    -1     0     0     0     0  0.0000000000e+00  0.0000000000e+00  2.5000000000e+01  2.5000000000e+01  0.0000000000e+00 0. 9.
      -11    -1     0     0     0     0  0.0000000000e+00  0.0000000000e+00 -2.5000000000e+01  2.5000000000e+01  0.0000000000e+00 0. 9.
       25     2     1     2     0     0  0.0000000000e+00  0.0000000000e+00  0.0000000000e+00  5.0000000000e+01  5.0000000000e+01 0. 9.
       21     1     3     0   101   102  1.3191345798e+01 -7.4743111970e+00  1.9877702789e+01  2.5000000000e+01  0.0000000000e+00 0. 9.
       21     1     3     0   102   101 -1.3191345798e+01  7.4743111970e+00 -1.9877702789e+01  2.5000000000e+01  0.0000000000e+00 0. 9.
#pdf   11  -11  1.000000e+00  1.000000e+00  5.000000e+01  1.000000e+00  1.000000e+00
</event>
<event>
     5  9999  1.000000e+00  5.000000e+01  7.764622e-03  1.436968e-01
       11    -1     0     0     0     0  0.0000000000e+00  0.0000000000e+00  2.5000000000e+01  2.5000000000e+01  0.0000000000e+00 0. 9.
      -11    -1     0     0     0     0  0.0000000000e+00  0.0000000000e+00 -2.5000000000e+01  2.5000000000e+01  0.0000000000e+00 0. 9.
       25     2     1     2     0     0  0.0000000000e+00  0.0000000000e+00  0.0000000000e+00  5.0000000000e+01  5.0000000000e+01 0. 9.
       21     1     3     0   101   102 -1.3116368799e+00  1.9325537139e+01  1.5805164441e+01  2.5000000000e+01  0.0000000000e+00 0. 9.
       21     1     3     0   102   101  1.3116368799e+00 -1.9325537139e+01 -1.5805164441e+01  2.5000000000e+01  0.0000000000e+00 0. 9.
#pdf   11  -11  1.000000e+00  1.000000e+00  5.000000e+01  1.000000e+00  1.000000e+00
</event>
<event>
     5  9999  1.000000e+00  5.000000e+01  7.764622e-03  1.436968e-01
       11    -1     0     0     0     0  0.0000000000e+00  0.0000000000e+00  2.5000000000e+01  2.5000000000e+01  0.0000000000e+00 0. 9.
      -11    -1     0     0     0     0  0.0000000000e+00  0.0000000000e+00 -2.5000000000e+01  2.5000000000e+01  0.0000000000e+00 0. 9.
       25     2     1     2     0     0  0.0000000000e+00  0.0000000000e+00  0.0000000000e+00  5.0000000000e+01  5.0000000000e+01 0. 9.
       21     1     3     0   101   102  2.2699567143e+00  1.2417376623e+01 -2.1579065186e+01  2.5000000000e+01  0.0000000000e+00 0. 9.
       21     1     3     0   102   101 -2.2699567143e+00 -1.2417376623e+01  2.1579065186e+01  2.5000000000e+01  0.0000000000e+00 0. 9.
#pdf   11  -11  1.000000e+00  1.000000e+00  5.000000e+01  1.000000e+00  1.000000e+00
</event>
<event>
     5  9999  1.000000e+00  5.000000e+01  7.764622e-03  1.436968e-01
       11    -1     0     0     0     0  0.0000000000e+00  0.0000000000e+00  2.5000000000e+01  2.5000000000e+01  0.0000000000e+00 0. 9.
      -11    -1     0     0     0     0  0.0000000000e+00  0.0000000000e+00 -2.5000000000e+01  2.5000000000e+01  0.0000000000e+00 0. 9.
       25     2     1     2     0     0  0.0000000000e+00  0.0000000000e+00  0.0000000000e+00  5.0000000000e+01  5.0000000000e+01 0. 9.
       21     1     3     0   101   102 -8.2684110566e+00  2.1676381506e+01  9.3149269132e+00  2.5000000000e+01  0.0000000000e+00 0. 9.
       21     1     3     0   102   101  8.2684110566e+00 -2.1676381506e+01 -9.3149269132e+00  2.5000000000e+01  0.0000000000e+00 0. 9.
#pdf   11  -11  1.000000e+00  1.000000e+00  5.000000e+01  1.000000e+00  1.000000e+00
</event>
<event>
     5  9999  1.000000e+00  5.000000e+01  7.764622e-03  1.436968e-01
       11    -1     0     0     0     0  0.0000000000e+00  0.0000000000e+00  2.5000000000e+01  2.5000000000e+01  0.0000000000e+00 0. 9.
      -11    -1     0     0     0     0  0.0000000000e+00  0.0000000000e+00 -2.5000000000e+01  2.5000000000e+01  0.0000000000e+00 0. 9.
       25     2     1     2     0     0  0.0000000000e+00  0.0000000000e+00  0.0000000000e+00  5.0000000000e+01  5.0000000000e+01 0. 9.
       21     1     3     0   101   102 -3.6250647624e+00  2.4188776691e+01  5.1731989766e+00  2.5000000000e+01  0.0000000000e+00 0. 9.
       21     1     3     0   102   101  3.6250647624e+00 -2.4188776691e+01 -5.1731989766e+00  2.5000000000e+01  0.0000000000e+00 0. 9.
#pdf   11  -11  1.000000e+00  1.000000e+00  5.000000e+01  1.000000e+00  1.000000e+00
</event>
<event>
     5  9999  1.000000e+00  5.000000e+01  7.764622e-03  1.436968e-01
       11    -1     0     0     0     0  0.0000000000e+00  0.0000000000e+00  2.5000000000e+01  2.5000000000e+01  0.0000000000e+00 0. 9.
      -11    -1     0     0     0     0  0.0000000000e+00  0.0000000000e+00 -2.5000000000e+01  2.5000000000e+01  0.0000000000e+00 0. 9.
       25     2     1     2     0     0  0.0000000000e+00  0.0000000000e+00  0.0000000000e+00  5.0000000000e+01  5.0000000000e+01 0. 9.
       21     1     3     0   101   102 -2.1516653929e+01 -9.1592697546e+00 -8.8397613803e+00  2.5000000000e+01  0.0000000000e+00 0. 9.
       21     1     3     0   102   101  2.1516653929e+01  9.1592697546e+00  8.8397613803e+00  2.5000000000e+01  0.0000000000e+00 0. 9.
#pdf   11  -11  1.000000e+00  1.000000e+00  5.000000e+01  1.000000e+00  1.000000e+00
</event>
<event>
     5  9999  1.000000e+00  5.000000e+01  7.764622e-03  1.436968e-01
       11    -1     0     0     0     0  0.0000000000e+00  0.0000000000e+00  2.5000000000e+01  2.5000000000e+01  0.0000000000e+00 0. 9.
      -11    -1     0     0     0     0  0.0000000000e+00  0.0000000000e+00 -2.5000000000e+01  2.5000000000e+01  0.0000000000e+00 0. 9.
       25     2     1     2     0     0  0.0000000000e+00  0.0000000000e+00  0.0000000000e+00  5.0000000000e+01  5.0000000000e+01 0. 9.
       21     1     3     0   101   102  1.3021580949e+01  1.3051664791e+01  1.6884681690e+01  2.5000000000e+01  0.0000000000e+00 0. 9.
       21     1     3     0   102   101 -1.3021580949e+01 -1.3051664791e+01 -1.6884681690e+01  2.5000000000e+01  0.0000000000e+00 0. 9.
#pdf   11  -11  1.000000e+00  1.000000e+00  5.000000e+01  1.000000e+00  1.000000e+00
</event>
<event>
     5  9999  1.000000e+00  5.000000e+01  7.764622e-03  1.436968e-01
       11    -1     0     0     0     0  0.0000000000e+00  0.0000000000e+00  2.5000000000e+01  2.5000000000e+01  0.0000000000e+00 0. 9.
      -11    -1     0     0     0     0  0.0000000000e+00  0.0000000000e+00 -2.5000000000e+01  2.5000000000e+01  0.0000000000e+00 0. 9.
       25     2     1     2     0     0  0.0000000000e+00  0.0000000000e+00  0.0000000000e+00  5.0000000000e+01  5.0000000000e+01 0. 9.
       21     1     3     0   101   102 -5.3445511288e+00 -4.1897205878e+00 -2.4059967054e+01  2.5000000000e+01  0.0000000000e+00 0. 9.
       21     1     3     0   102   101  5.3445511288e+00  4.1897205878e+00  2.4059967054e+01  2.5000000000e+01  0.0000000000e+00 0. 9.
#pdf   11  -11  1.000000e+00  1.000000e+00  5.000000e+01  1.000000e+00  1.000000e+00
</event>
<event>
     5  9999  1.000000e+00  5.000000e+01  7.764622e-03  1.436968e-01
       11    -1     0     0     0     0  0.0000000000e+00  0.0000000000e+00  2.5000000000e+01  2.5000000000e+01  0.0000000000e+00 0. 9.
      -11    -1     0     0     0     0  0.0000000000e+00  0.0000000000e+00 -2.5000000000e+01  2.5000000000e+01  0.0000000000e+00 0. 9.
       25     2     1     2     0     0  0.0000000000e+00  0.0000000000e+00  0.0000000000e+00  5.0000000000e+01  5.0000000000e+01 0. 9.
       21     1     3     0   101   102  2.2686303043e+01  1.0202579992e+01 -2.4978021814e+00  2.5000000000e+01  0.0000000000e+00 0. 9.
       21     1     3     0   102   101 -2.2686303043e+01 -1.0202579992e+01  2.4978021814e+00  2.5000000000e+01  0.0000000000e+00 0. 9.
#pdf   11  -11  1.000000e+00  1.000000e+00  5.000000e+01  1.000000e+00  1.000000e+00
</event>
<event>
     5  9999  1.000000e+00  5.000000e+01  7.764622e-03  1.436968e-01
       11    -1     0     0     0     0  0.0000000000e+00  0.0000000000e+00  2.5000000000e+01  2.5000000000e+01  0.0000000000e+00 0. 9.
      -11    -1     0     0     0     0  0.0000000000e+00  0.0000000000e+00 -2.5000000000e+01  2.5000000000e+01  0.0000000000e+00 0. 9.
       25     2     1     2     0     0  0.0000000000e+00  0.0000000000e+00  0.0000000000e+00  5.0000000000e+01  5.0000000000e+01 0. 9.
       21     1     3     0   101   102 -3.3089070500e+00 -1.9150170778e+01 -1.5726477460e+01  2.5000000000e+01  0.0000000000e+00 0. 9.
       21     1     3     0   102   101  3.3089070500e+00  1.9150170778e+01  1.5726477460e+01  2.5000000000e+01  0.0000000000e+00 0. 9.
#pdf   11  -11  1.000000e+00  1.000000e+00  5.000000e+01  1.000000e+00  1.000000e+00
</event>
<event>
     5  9999  1.000000e+00  5.000000e+01  7.764622e-03  1.436968e-01
       11    -1     0     0     0     0  0.0000000000e+00  0.0000000000e+00  2.5000000000e+01  2.5000000000e+01  0.0000000000e+00 0. 9.
      -11    -1     0     0     0     0  0.0000000000e+00  0.0000000000e+00 -2.5000000000e+01  2.5000000000e+01  0.0000000000e+00 0. 9.
       25     2     1     2     0     0  0.0000000000e+00  0.0000000000e+00  0.0000000000e+00  5.0000000000e+01  5.0000000000e+01 0. 9.
       21     1     3     0   101   102 -8.4305707176e+00 -2.0272767572e+01  1.1955767326e+01  2.5000000000e+01  0.0000000000e+00 0. 9.
       21     1     3     0   102   101  8.4305707176e+00  2.0272767572e+01 -1.1955767326e+01  2.5000000000e+01  0.0000000000e+00 0. 9.
#pdf   11  -11  1.000000e+00  1.000000e+00  5.000000e+01  1.000000e+00  1.000000e+00
</event>
<event>
     5  9999  1.000000e+00  5.000000e+01  7.764622e-03  1.436968e-01
       11    -1     0     0     0     0  0.0000000000e+00  0.0000000000e+00  2.5000000000e+01  2.5000000000e+01  0.0000000000e+00 0. 9.
      -11    -1     0     0     0     0  0.0000000000e+00  0.0000000000e+00 -2.5000000000e+01  2.5000000000e+01  0.0000000000e+00 0. 9.
       25     2     1     2     0     0  0.0000000000e+00  0.0000000000e+00  0.0000000000e+00  5.0000000000e+01  5.0000000000e+01 0. 9.
       21     1     3     0   101   102  9.7397444240e+00 -2.3001154902e+01  1.0412740932e+00  2.5000000000e+01  0.0000000000e+00 0. 9.
       21     1     3     0   102   101 -9.7397444240e+00  2.3001154902e+01 -1.0412740932e+00  2.5000000000e+01  0.0000000000e+00 0. 9.
#pdf   11  -11  1.000000e+00  1.000000e+00  5.000000e+01  1.000000e+00  1.000000e+00
</event>
<event>
     5  9999  1.000000e+00  5.000000e+01  7.764622e-03  1.436968e-01
       11    -1     0     0     0     0  0.0000000000e+00  0.0000000000e+00  2.5000000000e+01  2.5000000000e+01  0.0000000000e+00 0. 9.
      -11    -1     0     0     0     0  0.0000000000e+00  0.0000000000e+00 -2.5000000000e+01  2.5000000000e+01  0.0000000000e+00 0. 9.
       25     2     1     2     0     0  0.0000000000e+00  0.0000000000e+00  0.0000000000e+00  5.0000000000e+01  5.0000000000e+01 0. 9.
       21     1     3     0   101   102 -8.9754316270e+00 -2.1523879098e+01  9.0091206947e+00  2.5000000000e+01  0.0000000000e+00 0. 9.
       21     1     3     0   102   101  8.9754316270e+00  2.1523879098e+01 -9.0091206947e+00  2.5000000000e+01  0.0000000000e+00 0. 9.
#pdf   11  -11  1.000000e+00  1.000000e+00  5.000000e+01  1.000000e+00  1.000000e+00
</event>
<event>
     5  9999  1.000000e+00  5.000000e+01  7.764622e-03  1.436968e-01
       11    -1     0     0     0     0  0.0000000000e+00  0.0000000000e+00  2.5000000000e+01  2.5000000000e+01  0.0000000000e+00 0. 9.
      -11    -1     0     0     0     0  0.0000000000e+00  0.0000000000e+00 -2.5000000000e+01  2.5000000000e+01  0.0000000000e+00 0. 9.
       25     2     1     2     0     0  0.0000000000e+00  0.0000000000e+00  0.0000000000e+00  5.0000000000e+01  5.0000000000e+01 0. 9.
       21     1     3     0   101   102 -2.2487915063e+01 -6.6496935577e+00 -8.6645976079e+00  2.5000000000e+01  0.0000000000e+00 0. 9.
       21     1     3     0   102   101  2.2487915063e+01  6.6496935577e+00  8.6645976079e+00  2.5000000000e+01  0.0000000000e+00 0. 9.
#pdf   11  -11  1.000000e+00  1.000000e+00  5.000000e+01  1.000000e+00  1.000000e+00
</event>
<event>
     5  9999  1.000000e+00  5.000000e+01  7.764622e-03  1.436968e-01
       11    -1     0     0     0     0  0.0000000000e+00  0.0000000000e+00  2.5000000000e+01  2.5000000000e+01  0.0000000000e+00 0. 9.
      -11    -1     0     0     0     0  0.0000000000e+00  0.0000000000e+00 -2.5000000000e+01  2.5000000000e+01  0.0000000000e+00 0. 9.
       25     2     1     2     0     0  0.0000000000e+00  0.0000000000e+00  0.0000000000e+00  5.0000000000e+01  5.0000000000e+01 0. 9.
       21     1     3     0   101   102  2.3436946226e+01  7.1271237236e+00  4.9913584355e+00  2.5000000000e+01  0.0000000000e+00 0. 9.
       21     1     3     0   102   101 -2.3436946226e+01 -7.1271237236e+00 -4.9913584355e+00  2.5000000000e+01  0.0000000000e+00 0. 9.
#pdf   11  -11  1.000000e+00  1.000000e+00  5.000000e+01  1.000000e+00  1.000000e+00
</event>
<event>
     5  9999  1.000000e+00  5.000000e+01  7.764622e-03  1.436968e-01
       11    -1     0     0     0     0  0.0000000000e+00  0.0000000000e+00  2.5000000000e+01  2.5000000000e+01  0.0000000000e+00 0. 9.
      -11    -1     0     0     0     0  0.0000000000e+00  0.0000000000e+00 -2.5000000000e+01  2.5000000000e+01  0.0000000000e+00 0. 9.
       25     2     1     2     0     0  0.0000000000e+00  0.0000000000e+00  0.0000000000e+00  5.0000000000e+01  5.0000000000e+01 0. 9.
       21     1     3     0   101   102 -9.0600144852e+00 -2.2881412236e+01  4.3996717646e+00  2.5000000000e+01  0.0000000000e+00 0. 9.
       21     1     3     0   102   101  9.0600144852e+00  2.2881412236e+01 -4.3996717646e+00  2.5000000000e+01  0.0000000000e+00 0. 9.
#pdf   11  -11  1.000000e+00  1.000000e+00  5.000000e+01  1.000000e+00  1.000000e+00
</event>
<event>
     5  9999  1.000000e+00  5.000000e+01  7.764622e-03  1.436968e-01
       11    -1     0     0     0     0  0.0000000000e+00  0.0000000000e+00  2.5000000000e+01  2.5000000000e+01  0.0000000000e+00 0. 9.
      -11    -1     0     0     0     0  0.0000000000e+00  0.0000000000e+00 -2.5000000000e+01  2.5000000000e+01  0.0000000000e+00 0. 9.
       25     2     1     2     0     0  0.0000000000e+00  0.0000000000e+00  0.0000000000e+00  5.0000000000e+01  5.0000000000e+01 0. 9.
       21     1     3     0   101   102 -2.1105761423e+00 -1.1084973188e+01  2.2308492503e+01  2.5000000000e+01  0.0000000000e+00 0. 9.
       21     1     3     0   102   101  2.1105761423e+00  1.1084973188e+01 -2.2308492503e+01  2.5000000000e+01  0.0000000000e+00 0. 9.
#pdf   11  -11  1.000000e+00  1.000000e+00  5.000000e+01  1.000000e+00  1.000000e+00
</event>
<event>
     5  9999  1.000000e+00  5.000000e+01  7.764622e-03  1.436968e-01
       11    -1     0     0     0     0  0.0000000000e+00  0.0000000000e+00  2.5000000000e+01  2.5000000000e+01  0.0000000000e+00 0. 9.
      -11    -1     0     0     0     0  0.0000000000e+00  0.0000000000e+00 -2.5000000000e+01  2.5000000000e+01  0.0000000000e+00 0. 9.
       25     2     1     2     0     0  0.0000000000e+00  0.0000000000e+00  0.0000000000e+00  5.0000000000e+01  5.0000000000e+01 0. 9.
       21     1     3     0   101   102  2.4754329330e+01 -3.3912187653e+00  8.5018511170e-01  2.5000000000e+01  0.0000000000e+00 0. 9.
       21     1     3     0   102   101 -2.4754329330e+01  3.3912187653e+00 -8.5018511170e-01  2.5000000000e+01  0.0000000000e+00 0. 9.
#pdf   11  -11  1.000000e+00  1.000000e+00  5.000000e+01  1.000000e+00  1.000000e+00
</event>
<event>
     5  9999  1.000000e+00  5.000000e+01  7.764622e-03  1.436968e-01
       11    -1     0     0     0     0  0.0000000000e+00  0.0000000000e+00  2.5000000000e+01  2.5000000000e+01  0.0000000000e+00 0. 9.
      -11    -1     0     0     0     0  0.0000000000e+00  0.0000000000e+00 -2.5000000000e+01  2.5000000000e+01  0.0000000000e+00 0. 9.
       25     2     1     2     0     0  0.0000000000e+00  0.0000000000e+00  0.0000000000e+00  5.0000000000e+01  5.0000000000e+01 0. 9.
       21     1     3     0   101   102  2.3142083313e+01  9.1954180104e+00  2.2109426859e+00  2.5000000000e+01  0.0000000000e+00 0. 9.
       21     1     3     0   102   101 -2.3142083313e+01 -9.1954180104e+00 -2.2109426859e+00  2.5000000000e+01  0.0000000000e+00 0. 9.
#pdf   11  -11  1.000000e+00  1.000000e+00  5.000000e+01  1.000000e+00  1.000000e+00
</event>
<event>
     5  9999  1.000000e+00  5.000000e+01  7.764622e-03  1.436968e-01
       11    -1     0     0     0     0  0.0000000000e+00  0.0000000000e+00  2.5000000000e+01  2.5000000000e+01  0.0000000000e+00 0. 9.
      -11    -1     0     0     0     0  0.0000000000e+00  0.0000000000e+00 -2.5000000000e+01  2.5000000000e+01  0.0000000000e+00 0. 9.
       25     2     1     2     0     0  0.0000000000e+00  0.0000000000e+00  0.0000000000e+00  5.0000000000e+01  5.0000000000e+01 0. 9.
       21     1     3     0   101   102  1.9112338959e+01 -1.0811477273e+01  1.1951169762e+01  2.5000000000e+01  0.0000000000e+00 0. 9.
       21     1     3     0   102   101 -1.9112338959e+01  1.0811477273e+01 -1.1951169762e+01  2.5000000000e+01  0.0000000000e+00 0. 9.
#pdf   11  -11  1.000000e+00  1.000000e+00  5.000000e+01  1.000000e+00  1.000000e+00
</event>
<event>
     5  9999  1.000000e+00  5.000000e+01  7.764622e-03  1.436968e-01
       11    -1     0     0     0     0  0.0000000000e+00  0.0000000000e+00  2.5000000000e+01  2.5000000000e+01  0.0000000000e+00 0. 9.
      -11    -1     0     0     0     0  0.0000000000e+00  0.0000000000e+00 -2.5000000000e+01  2.5000000000e+01  0.0000000000e+00 0. 9.
       25     2     1     2     0     0  0.0000000000e+00  0.0000000000e+00  0.0000000000e+00  5.0000000000e+01  5.0000000000e+01 0. 9.
       21     1     3     0   101   102  1.0193636366e+01 -3.6955845162e+00 -2.2526260958e+01  2.5000000000e+01  0.0000000000e+00 0. 9.
       21     1     3     0   102   101 -1.0193636366e+01  3.6955845162e+00  2.2526260958e+01  2.5000000000e+01  0.0000000000e+00 0. 9.
#pdf   11  -11  1.000000e+00  1.000000e+00  5.000000e+01  1.000000e+00  1.000000e+00
</event>
<event>
     5  9999  1.000000e+00  5.000000e+01  7.764622e-03  1.436968e-01
       11    -1     0     0     0     0  0.0000000000e+00  0.0000000000e+00  2.5000000000e+01  2.5000000000e+01  0.0000000000e+00 0. 9.
      -11    -1     0     0     0     0  0.0000000000e+00  0.0000000000e+00 -2.5000000000e+01  2.5000000000e+01  0.0000000000e+00 0. 9.
       25     2     1     2     0     0  0.0000000000e+00  0.0000000000e+00  0.0000000000e+00  5.0000000000e+01  5.0000000000e+01 0. 9.
       21     1     3     0   101   102  1.8016258865e+01  1.5985254515e+01  6.6997055598e+00  2.5000000000e+01  0.0000000000e+00 0. 9.
       21     1     3     0   102   101 -1.8016258865e+01 -1.5985254515e+01 -6.6997055598e+00  2.5000000000e+01  0.0000000000e+00 0. 9.
#pdf   11  -11  1.000000e+00  1.000000e+00  5.000000e+01  1.000000e+00  1.000000e+00
</event>
<event>
     5  9999  1.000000e+00  5.000000e+01  7.764622e-03  1.436968e-01
       11    -1     0     0     0     0  0.0000000000e+00  0.0000000000e+00  2.5000000000e+01  2.5000000000e+01  0.0000000000e+00 0. 9.
      -11    -1     0     0     0     0  0.0000000000e+00  0.0000000000e+00 -2.5000000000e+01  2.5000000000e+01  0.0000000000e+00 0. 9.
       25     2     1     2     0     0  0.0000000000e+00  0.0000000000e+00  0.0000000000e+00  5.0000000000e+01  5.0000000000e+01 0. 9.
       21     1     3     0   101   102  2.1209468657e+01  3.7486316599e+00  1.2692761715e+01  2.5000000000e+01  0.0000000000e+00 0. 9.
       21     1     3     0   102   101 -2.1209468657e+01 -3.7486316599e+00 -1.2692761715e+01  2.5000000000e+01  0.0000000000e+00 0. 9.
#pdf   11  -11  1.000000e+00  1.000000e+00  5.000000e+01  1.000000e+00  1.000000e+00
</event>
<event>
     5  9999  1.000000e+00  5.000000e+01  7.764622e-03  1.436968e-01
       11    -1     0     0     0     0  0.0000000000e+00  0.0000000000e+00  2.5000000000e+01  2.5000000000e+01  0.0000000000e+00 0. 9.
      -11    -1     0     0     0     0  0.0000000000e+00  0.0000000000e+00 -2.5000000000e+01  2.5000000000e+01  0.0000000000e+00 0. 9.
       25     2     1     2     0     0  0.0000000000e+00  0.0000000000e+00  0.0000000000e+00  5.0000000000e+01  5.0000000000e+01 0. 9.
       21     1     3     0   101   102  7.1584172878e+00 -1.6114214705e+01  1.7722560379e+01  2.5000000000e+01  0.0000000000e+00 0. 9.
       21     1     3     0   102   101 -7.1584172878e+00  1.6114214705e+01 -1.7722560379e+01  2.5000000000e+01  0.0000000000e+00 0. 9.
#pdf   11  -11  1.000000e+00  1.000000e+00  5.000000e+01  1.000000e+00  1.000000e+00
</event>
<event>
     5  9999  1.000000e+00  5.000000e+01  7.764622e-03  1.436968e-01
       11    -1     0     0     0     0  0.0000000000e+00  0.0000000000e+00  2.5000000000e+01  2.5000000000e+01  0.0000000000e+00 0. 9.
      -11    -1     0     0     0     0  0.0000000000e+00  0.0000000000e+00 -2.5000000000e+01  2.5000000000e+01  0.0000000000e+00 0. 9.
       25     2     1     2     0     0  0.0000000000e+00  0.0000000000e+00  0.0000000000e+00  5.0000000000e+01  5.0000000000e+01 0. 9.
       21     1     3     0   101   102 -4.1316719982e+00 -7.2667479995e+00  2.3561062370e+01  2.5000000000e+01  0.0000000000e+00 0. 9.
       21     1     3     0   102   101  4.1316719982e+00  7.2667479995e+00 -2.3561062370e+01  2.5000000000e+01  0.0000000000e+00 0. 9.
#pdf   11  -11  1.000000e+00  1.000000e+00  5.000000e+01  1.000000e+00  1.000000e+00
</event>
<event>
     5  9999  1.000000e+00  5.000000e+01  7.764622e-03  1.436968e-01
       11    -1     0     0     0     0  0.0000000000e+00  0.0000000000e+00  2.5000000000e+01  2.5000000000e+01  0.0000000000e+00 0. 9.
      -11    -1     0     0     0     0  0.0000000000e+00  0.0000000000e+00 -2.5000000000e+01  2.5000000000e+01  0.0000000000e+00 0. 9.
       25     2     1     2     0     0  0.0000000000e+00  0.0000000000e+00  0.0000000000e+00  5.0000000000e+01  5.0000000000e+01 0. 9.
       21     1     3     0   101   102  2.2393624059e+00  1.2677685630e+01 -2.1430388309e+01  2.5000000000e+01  0.0000000000e+00 0. 9.
       21     1     3     0   102   101 -2.2393624059e+00 -1.2677685630e+01  2.1430388309e+01  2.5000000000e+01  0.0000000000e+00 0. 9.
#pdf   11  -11  1.000000e+00  1.000000e+00  5.000000e+01  1.000000e+00  1.000000e+00
</event>
<event>
     5  9999  1.000000e+00  5.000000e+01  7.764622e-03  1.436968e-01
       11    -1     0     0     0     0  0.0000000000e+00  0.0000000000e+00  2.5000000000e+01  2.5000000000e+01  0.0000000000e+00 0. 9.
      -11    -1     0     0     0     0  0.0000000000e+00  0.0000000000e+00 -2.5000000000e+01  2.5000000000e+01  0.0000000000e+00 0. 9.
       25     2     1     2     0     0  0.0000000000e+00  0.0000000000e+00  0.0000000000e+00  5.0000000000e+01  5.0000000000e+01 0. 9.
       21     1     3     0   101   102 -1.3862555543e+01 -1.2941882759e+01  1.6289175070e+01  2.5000000000e+01  0.0000000000e+00 0. 9.
       21     1     3     0   102   101  1.3862555543e+01  1.2941882759e+01 -1.6289175070e+01  2.5000000000e+01  0.0000000000e+00 0. 9.
#pdf   11  -11  1.000000e+00  1.000000e+00  5.000000e+01  1.000000e+00  1.000000e+00
</event>
<event>
     5  9999  1.000000e+00  5.000000e+01  7.764622e-03  1.436968e-01
       11    -1     0     0     0     0  0.0000000000e+00  0.0000000000e+00  2.5000000000e+01  2.5000000000e+01  0.0000000000e+00 0. 9.
      -11    -1     0     0     0     0  0.0000000000e+00  0.0000000000e+00 -2.5000000000e+01  2.5000000000e+01  0.0000000000e+00 0. 9.
       25     2     1     2     0     0  0.0000000000e+00  0.0000000000e+00  0.0000000000e+00  5.0000000000e+01  5.0000000000e+01 0. 9.
       21     1     3     0   101   102 -6.0814528745e+00  1.6531208409e+01  1.7740774489e+01  2.5000000000e+01  0.0000000000e+00 0. 9.
       21     1     3     0   102   101  6.0814528745e+00 -1.6531208409e+01 -1.7740774489e+01  2.5000000000e+01  0.0000000000e+00 0. 9.
#pdf   11  -11  1.000000e+00  1.000000e+00  5.000000e+01  1.000000e+00  1.000000e+00
</event>
<event>
     5  9999  1.000000e+00  5.000000e+01  7.764622e-03  1.436968e-01
       11    -1     0     0     0     0  0.0000000000e+00  0.0000000000e+00  2.5000000000e+01  2.5000000000e+01  0.0000000000e+00 0. 9.
      -11    -1     0     0     0     0  0.0000000000e+00  0.0000000000e+00 -2.5000000000e+01  2.5000000000e+01  0.0000000000e+00 0. 9.
       25     2     1     2     0     0  0.0000000000e+00  0.0000000000e+00  0.0000000000e+00  5.0000000000e+01  5.0000000000e+01 0. 9.
       21     1     3     0   101   102 -2.2729001851e+01 -2.5259881611e+00  1.0100092013e+01  2.5000000000e+01  0.0000000000e+00 0. 9.
       21     1     3     0   102   101  2.2729001851e+01  2.5259881611e+00 -1.0100092013e+01  2.5000000000e+01  0.0000000000e+00 0. 9.
#pdf   11  -11  1.000000e+00  1.000000e+00  5.000000e+01  1.000000e+00  1.000000e+00
</event>
<event>
     5  9999  1.000000e+00  5.000000e+01  7.764622e-03  1.436968e-01
       11    -1     0     0     0     0  0.0000000000e+00  0.0000000000e+00  2.5000000000e+01  2.5000000000e+01  0.0000000000e+00 0. 9.
      -11    -1     0     0     0     0  0.0000000000e+00  0.0000000000e+00 -2.5000000000e+01  2.5000000000e+01  0.0000000000e+00 0. 9.
       25     2     1     2     0     0  0.0000000000e+00  0.0000000000e+00  0.0000000000e+00  5.0000000000e+01  5.0000000000e+01 0. 9.
       21     1     3     0   101   102  2.1740549398e+01  7.5908161873e+00 -9.7328321403e+00  2.5000000000e+01  0.0000000000e+00 0. 9.
       21     1     3     0   102   101 -2.1740549398e+01 -7.5908161873e+00  9.7328321403e+00  2.5000000000e+01  0.0000000000e+00 0. 9.
#pdf   11  -11  1.000000e+00  1.000000e+00  5.000000e+01  1.000000e+00  1.000000e+00
</event>
<event>
     5  9999  1.000000e+00  5.000000e+01  7.764622e-03  1.436968e-01
       11    -1     0     0     0     0  0.0000000000e+00  0.0000000000e+00  2.5000000000e+01  2.5000000000e+01  0.0000000000e+00 0. 9.
      -11    -1     0     0     0     0  0.0000000000e+00  0.0000000000e+00 -2.5000000000e+01  2.5000000000e+01  0.0000000000e+00 0. 9.
       25     2     1     2     0     0  0.0000000000e+00  0.0000000000e+00  0.0000000000e+00  5.0000000000e+01  5.0000000000e+01 0. 9.
       21     1     3     0   101   102 -2.0820726565e+01  5.3701434445e+00 -1.2753780016e+01  2.5000000000e+01  0.0000000000e+00 0. 9.
       21     1     3     0   102   101  2.0820726565e+01 -5.3701434445e+00  1.2753780016e+01  2.5000000000e+01  0.0000000000e+00 0. 9.
#pdf   11  -11  1.000000e+00  1.000000e+00  5.000000e+01  1.000000e+00  1.000000e+00
</event>
<event>
     5  9999  1.000000e+00  5.000000e+01  7.764622e-03  1.436968e-01
       11    -1     0     0     0     0  0.0000000000e+00  0.0000000000e+00  2.5000000000e+01  2.5000000000e+01  0.0000000000e+00 0. 9.
      -11    -1     0     0     0     0  0.0000000000e+00  0.0000000000e+00 -2.5000000000e+01  2.5000000000e+01  0.0000000000e+00 0. 9.
       25     2     1     2     0     0  0.0000000000e+00  0.0000000000e+00  0.0000000000e+00  5.0000000000e+01  5.0000000000e+01 0. 9.
       21     1     3     0   101   102 -2.0233543156e+01  7.2537236523e+00  1.2766644999e+01  2.5000000000e+01  0.0000000000e+00 0. 9.
       21     1     3     0   102   101  2.0233543156e+01 -7.2537236523e+00 -1.2766644999e+01  2.5000000000e+01  0.0000000000e+00 0. 9.
#pdf   11  -11  1.000000e+00  1.000000e+00  5.000000e+01  1.000000e+00  1.000000e+00
</event>
<event>
     5  9999  1.000000e+00  5.000000e+01  7.764622e-03  1.436968e-01
       11    -1     0     0     0     0  0.0000000000e+00  0.0000000000e+00  2.5000000000e+01  2.5000000000e+01  0.0000000000e+00 0. 9.
      -11    -1     0     0     0     0  0.0000000000e+00  0.0000000000e+00 -2.5000000000e+01  2.5000000000e+01  0.0000000000e+00 0. 9.
       25     2     1     2     0     0  0.0000000000e+00  0.0000000000e+00  0.0000000000e+00  5.0000000000e+01  5.0000000000e+01 0. 9.
       21     1     3     0   101   102 -4.7252191041e+00  2.3286298805e+01 -7.7730684014e+00  2.5000000000e+01  0.0000000000e+00 0. 9.
       21     1     3     0   102   101  4.7252191041e+00 -2.3286298805e+01  7.7730684014e+00  2.5000000000e+01  0.0000000000e+00 0. 9.
#pdf   11  -11  1.000000e+00  1.000000e+00  5.000000e+01  1.000000e+00  1.000000e+00
</event>
<event>
     5  9999  1.000000e+00  5.000000e+01  7.764622e-03  1.436968e-01
       11    -1     0     0     0     0  0.0000000000e+00  0.0000000000e+00  2.5000000000e+01  2.5000000000e+01  0.0000000000e+00 0. 9.
      -11    -1     0     0     0     0  0.0000000000e+00  0.0000000000e+00 -2.5000000000e+01  2.5000000000e+01  0.0000000000e+00 0. 9.
       25     2     1     2     0     0  0.0000000000e+00  0.0000000000e+00  0.0000000000e+00  5.0000000000e+01  5.0000000000e+01 0. 9.
       21     1     3     0   101   102 -1.6471315486e+00  2.1951154922e+01 -1.1850474895e+01  2.5000000000e+01  0.0000000000e+00 0. 9.
       21     1     3     0   102   101  1.6471315486e+00 -2.1951154922e+01  1.1850474895e+01  2.5000000000e+01  0.0000000000e+00 0. 9.
#pdf   11  -11  1.000000e+00  1.000000e+00  5.000000e+01  1.000000e+00  1.000000e+00
</event>
<event>
     5  9999  1.000000e+00  5.000000e+01  7.764622e-03  1.436968e-01
       11    -1     0     0     0     0  0.0000000000e+00  0.0000000000e+00  2.5000000000e+01  2.5000000000e+01  0.0000000000e+00 0. 9.
      -11    -1     0     0     0     0  0.0000000000e+00  0.0000000000e+00 -2.5000000000e+01  2.5000000000e+01  0.0000000000e+00 0. 9.
       25     2     1     2     0     0  0.0000000000e+00  0.0000000000e+00  0.0000000000e+00  5.0000000000e+01  5.0000000000e+01 0. 9.
       21     1     3     0   101   102 -2.4776416992e+01 -2.8283657266e+00  1.7690416467e+00  2.5000000000e+01  0.0000000000e+00 0. 9.
       21     1     3     0   102   101  2.4776416992e+01  2.8283657266e+00 -1.7690416467e+00  2.5000000000e+01  0.0000000000e+00 0. 9.
#pdf   11  -11  1.000000e+00  1.000000e+00  5.000000e+01  1.000000e+00  1.000000e+00
</event>
<event>
     5  9999  1.000000e+00  5.000000e+01  7.764622e-03  1.436968e-01
       11    -1     0     0     0     0  0.0000000000e+00  0.0000000000e+00  2.5000000000e+01  2.5000000000e+01  0.0000000000e+00 0. 9.
      -11    -1     0     0     0     0  0.0000000000e+00  0.0000000000e+00 -2.5000000000e+01  2.5000000000e+01  0.0000000000e+00 0. 9.
       25     2     1     2     0     0  0.0000000000e+00  0.0000000000e+00  0.0000000000e+00  5.0000000000e+01  5.0000000000e+01 0. 9.
       21     1     3     0   101   102  1.7626309272e+01  6.9680575499e+00  1.6302128555e+01  2.5000000000e+01  0.0000000000e+00 0. 9.
       21     1     3     0   102   101 -1.7626309272e+01 -6.9680575499e+00 -1.6302128555e+01  2.5000000000e+01  0.0000000000e+00 0. 9.
#pdf   11  -11  1.000000e+00  1.000000e+00  5.000000e+01  1.000000e+00  1.000000e+00
</event>
<event>
     5  9999  1.000000e+00  5.000000e+01  7.764622e-03  1.436968e-01
       11    -1     0     0     0     0  0.0000000000e+00  0.0000000000e+00  2.5000000000e+01  2.5000000000e+01  0.0000000000e+00 0. 9.
      -11    -1     0     0     0     0  0.0000000000e+00  0.0000000000e+00 -2.5000000000e+01  2.5000000000e+01  0.0000000000e+00 0. 9.
       25     2     1     2     0     0  0.0000000000e+00  0.0000000000e+00  0.0000000000e+00  5.0000000000e+01  5.0000000000e+01 0. 9.
       21     1     3     0   101   102 -1.3796919482e+01 -1.3839154055e+01  1.5592396475e+01  2.5000000000e+01  0.0000000000e+00 0. 9.
       21     1     3     0   102   101  1.3796919482e+01  1.3839154055e+01 -1.5592396475e+01  2.5000000000e+01  0.0000000000e+00 0. 9.
#pdf   11  -11  1.000000e+00  1.000000e+00  5.000000e+01  1.000000e+00  1.000000e+00
</event>
<event>
     5  9999  1.000000e+00  5.000000e+01  7.764622e-03  1.436968e-01
       11    -1     0     0     0     0  0.0000000000e+00  0.0000000000e+00  2.5000000000e+01  2.5000000000e+01  0.0000000000e+00 0. 9.
      -11    -1     0     0     0     0  0.0000000000e+00  0.0000000000e+00 -2.5000000000e+01  2.5000000000e+01  0.0000000000e+00 0. 9.
       25     2     1     2     0     0  0.0000000000e+00  0.0000000000e+00  0.0000000000e+00  5.0000000000e+01  5.0000000000e+01 0. 9.
       21     1     3     0   101   102  1.5640351761e+00  2.4932629979e+01 -9.5799599118e-01  2.5000000000e+01  0.0000000000e+00 0. 9.
       21     1     3     0   102   101 -1.5640351761e+00 -2.4932629979e+01  9.5799599118e-01  2.5000000000e+01  0.0000000000e+00 0. 9.
#pdf   11  -11  1.000000e+00  1.000000e+00  5.000000e+01  1.000000e+00  1.000000e+00
</event>
<event>
     5  9999  1.000000e+00  5.000000e+01  7.764622e-03  1.436968e-01
       11    -1     0     0     0     0  0.0000000000e+00  0.0000000000e+00  2.5000000000e+01  2.5000000000e+01  0.0000000000e+00 0. 9.
      -11    -1     0     0     0     0  0.0000000000e+00  0.0000000000e+00 -2.5000000000e+01  2.5000000000e+01  0.0000000000e+00 0. 9.
       25     2     1     2     0     0  0.0000000000e+00  0.0000000000e+00  0.0000000000e+00  5.0000000000e+01  5.0000000000e+01 0. 9.
       21     1     3     0   101   102 -1.0761208823e+01 -8.2830450907e+00 -2.0990177433e+01  2.5000000000e+01  0.0000000000e+00 0. 9.
       21     1     3     0   102   101  1.0761208823e+01  8.2830450907e+00  2.0990177433e+01  2.5000000000e+01  0.0000000000e+00 0. 9.
#pdf   11  -11  1.000000e+00  1.000000e+00  5.000000e+01  1.000000e+00  1.000000e+00
</event>
<event>
     5  9999  1.000000e+00  5.000000e+01  7.764622e-03  1.436968e-01
       11    -1     0     0     0     0  0.0000000000e+00  0.0000000000e+00  2.5000000000e+01  2.5000000000e+01  0.0000000000e+00 0. 9.
      -11    -1     0     0     0     0  0.0000000000e+00  0.0000000000e+00 -2.5000000000e+01  2.5000000000e+01  0.0000000000e+00 0. 9.
       25     2     1     2     0     0  0.0000000000e+00  0.0000000000e+00  0.0000000000e+00  5.0000000000e+01  5.0000000000e+01 0. 9.
       21     1     3     0   101   102 -2.2359752279e+01 -1.1158062816e+00 -1.1126385503e+01  2.5000000000e+01  0.0000000000e+00 0. 9.
       21     1     3     0   102   101  2.2359752279e+01  1.1158062816e+00  1.1126385503e+01  2.5000000000e+01  0.0000000000e+00 0. 9.
#pdf   11  -11  1.000000e+00  1.000000e+00  5.000000e+01  1.000000e+00  1.000000e+00
</event>
<event>
     5  9999  1.000000e+00  5.000000e+01  7.764622e-03  1.436968e-01
       11    -1     0     0     0     0  0.0000000000e+00  0.0000000000e+00  2.5000000000e+01  2.5000000000e+01  0.0000000000e+00 0. 9.
      -11    -1     0     0     0     0  0.0000000000e+00  0.0000000000e+00 -2.5000000000e+01  2.5000000000e+01  0.0000000000e+00 0. 9.
       25     2     1     2     0     0  0.0000000000e+00  0.0000000000e+00  0.0000000000e+00  5.0000000000e+01  5.0000000000e+01 0. 9.
       21     1     3     0   101   102 -1.0865979160e+01 -1.7563984763e+01 -1.4086764573e+01  2.5000000000e+01  0.0000000000e+00 0. 9.
       21     1     3     0   102   101  1.0865979160e+01  1.7563984763e+01  1.4086764573e+01  2.5000000000e+01  0.0000000000e+00 0. 9.
#pdf   11  -11  1.000000e+00  1.000000e+00  5.000000e+01  1.000000e+00  1.000000e+00
</event>
<event>
     5  9999  1.000000e+00  5.000000e+01  7.764622e-03  1.436968e-01
       11    -1     0     0     0     0  0.0000000000e+00  0.0000000000e+00  2.5000000000e+01  2.5000000000e+01  0.0000000000e+00 0. 9.
      -11    -1     0     0     0     0  0.0000000000e+00  0.0000000000e+00 -2.5000000000e+01  2.5000000000e+01  0.0000000000e+00 0. 9.
       25     2     1     2     0     0  0.0000000000e+00  0.0000000000e+00  0.0000000000e+00  5.0000000000e+01  5.0000000000e+01 0. 9.
       21     1     3     0   101   102 -8.5195453641e+00 -8.0505208987e+00  2.2081812880e+01  2.5000000000e+01  0.0000000000e+00 0. 9.
       21     1     3     0   102   101  8.5195453641e+00  8.0505208987e+00 -2.2081812880e+01  2.5000000000e+01  0.0000000000e+00 0. 9.
#pdf   11  -11  1.000000e+00  1.000000e+00  5.000000e+01  1.000000e+00  1.000000e+00
</event>
<event>
     5  9999  1.000000e+00  5.000000e+01  7.764622e-03  1.436968e-01
       11    -1     0     0     0     0  0.0000000000e+00  0.0000000000e+00  2.5000000000e+01  2.5000000000e+01  0.0000000000e+00 0. 9.
      -11    -1     0     0     0     0  0.0000000000e+00  0.0000000000e+00 -2.5000000000e+01  2.5000000000e+01  0.0000000000e+00 0. 9.
       25     2     1     2     0     0  0.0000000000e+00  0.0000000000e+00  0.0000000000e+00  5.0000000000e+01  5.0000000000e+01 0. 9.
       21     1     3     0   101   102 -5.3633589086e+00 -1.7349527201e+01  1.7182208447e+01  2.5000000000e+01  0.0000000000e+00 0. 9.
       21     1     3     0   102   101  5.3633589086e+00  1.7349527201e+01 -1.7182208447e+01  2.5000000000e+01  0.0000000000e+00 0. 9.
#pdf   11  -11  1.000000e+00  1.000000e+00  5.000000e+01  1.000000e+00  1.000000e+00
</event>
<event>
     5  9999  1.000000e+00  5.000000e+01  7.764622e-03  1.436968e-01
       11    -1     0     0     0     0  0.0000000000e+00  0.0000000000e+00  2.5000000000e+01  2.5000000000e+01  0.0000000000e+00 0. 9.
      -11    -1     0     0     0     0  0.0000000000e+00  0.0000000000e+00 -2.5000000000e+01  2.5000000000e+01  0.0000000000e+00 0. 9.
       25     2     1     2     0     0  0.0000000000e+00  0.0000000000e+00  0.0000000000e+00  5.0000000000e+01  5.0000000000e+01 0. 9.
       21     1     3     0   101   102 -6.9741792029e+00 -2.2983223883e+01  6.9377405821e+00  2.5000000000e+01  0.0000000000e+00 0. 9.
       21     1     3     0   102   101  6.9741792029e+00  2.2983223883e+01 -6.9377405821e+00  2.5000000000e+01  0.0000000000e+00 0. 9.
#pdf   11  -11  1.000000e+00  1.000000e+00  5.000000e+01  1.000000e+00  1.000000e+00
</event>
<event>
     5  9999  1.000000e+00  5.000000e+01  7.764622e-03  1.436968e-01
       11    -1     0     0     0     0  0.0000000000e+00  0.0000000000e+00  2.5000000000e+01  2.5000000000e+01  0.0000000000e+00 0. 9.
      -11    -1     0     0     0     0  0.0000000000e+00  0.0000000000e+00 -2.5000000000e+01  2.5000000000e+01  0.0000000000e+00 0. 9.
       25     2     1     2     0     0  0.0000000000e+00  0.0000000000e+00  0.0000000000e+00  5.0000000000e+01  5.0000000000e+01 0. 9.
       21     1     3     0   101   102  6.2726964636e+00  2.2780732254e+01 -8.1664874366e+00  2.5000000000e+01  0.0000000000e+00 0. 9.
       21     1     3     0   102   101 -6.2726964636e+00 -2.2780732254e+01  8.1664874366e+00  2.5000000000e+01  0.0000000000e+00 0. 9.
#pdf   11  -11  1.000000e+00  1.000000e+00  5.000000e+01  1.000000e+00  1.000000e+00
</event>
<event>
     5  9999  1.000000e+00  5.000000e+01  7.764622e-03  1.436968e-01
       11    -1     0     0     0     0  0.0000000000e+00  0.0000000000e+00  2.5000000000e+01  2.5000000000e+01  0.0000000000e+00 0. 9.
      -11    -1     0     0     0     0  0.0000000000e+00  0.0000000000e+00 -2.5000000000e+01  2.5000000000e+01  0.0000000000e+00 0. 9.
       25     2     1     2     0     0  0.0000000000e+00  0.0000000000e+00  0.0000000000e+00  5.0000000000e+01  5.0000000000e+01 0. 9.
       21     1     3     0   101   102  8.8705211214e+00 -1.8748224222e+01  1.3957719855e+01  2.5000000000e+01  0.0000000000e+00 0. 9.
       21     1     3     0   102   101 -8.8705211214e+00  1.8748224222e+01 -1.3957719855e+01  2.5000000000e+01  0.0000000000e+00 0. 9.
#pdf   11  -11  1.000000e+00  1.000000e+00  5.000000e+01  1.000000e+00  1.000000e+00
</event>
<event>
     5  9999  1.000000e+00  5.000000e+01  7.764622e-03  1.436968e-01
       11    -1     0     0     0     0  0.0000000000e+00  0.0000000000e+00  2.5000000000e+01  2.5000000000e+01  0.0000000000e+00 0. 9.
      -11    -1     0     0     0     0  0.0000000000e+00  0.0000000000e+00 -2.5000000000e+01  2.5000000000e+01  0.0000000000e+00 0. 9.
       25     2     1     2     0     0  0.0000000000e+00  0.0000000000e+00  0.0000000000e+00  5.0000000000e+01  5.0000000000e+01 0. 9.
       21     1     3     0   101   102 -2.3338408358e+01  5.8631595625e+00 -6.7780568934e+00  2.5000000000e+01  0.0000000000e+00 0. 9.
       21     1     3     0   102   101  2.3338408358e+01 -5.8631595625e+00  6.7780568934e+00  2.5000000000e+01  0.0000000000e+00 0. 9.
#pdf   11  -11  1.000000e+00  1.000000e+00  5.000000e+01  1.000000e+00  1.000000e+00
</event>
<event>
     5  9999  1.000000e+00  5.000000e+01  7.764622e-03  1.436968e-01
       11    -1     0     0     0     0  0.0000000000e+00  0.0000000000e+00  2.5000000000e+01  2.5000000000e+01  0.0000000000e+00 0. 9.
      -11    -1     0     0     0     0  0.0000000000e+00  0.0000000000e+00 -2.5000000000e+01  2.5000000000e+01  0.0000000000e+00 0. 9.
       25     2     1     2     0     0  0.0000000000e+00  0.0000000000e+00  0.0000000000e+00  5.0000000000e+01  5.0000000000e+01 0. 9.
       21     1     3     0   101   102  8.1282802443e+00 -1.5088260752e+01  1.8200973813e+01  2.5000000000e+01  0.0000000000e+00 0. 9.
       21     1     3     0   102   101 -8.1282802443e+00  1.5088260752e+01 -1.8200973813e+01  2.5000000000e+01  0.0000000000e+00 0. 9.
#pdf   11  -11  1.000000e+00  1.000000e+00  5.000000e+01  1.000000e+00  1.000000e+00
</event>
<event>
     5  9999  1.000000e+00  5.000000e+01  7.764622e-03  1.436968e-01
       11    -1     0     0     0     0  0.0000000000e+00  0.0000000000e+00  2.5000000000e+01  2.5000000000e+01  0.0000000000e+00 0. 9.
      -11    -1     0     0     0     0  0.0000000000e+00  0.0000000000e+00 -2.5000000000e+01  2.5000000000e+01  0.0000000000e+00 0. 9.
       25     2     1     2     0     0  0.0000000000e+00  0.0000000000e+00  0.0000000000e+00  5.0000000000e+01  5.0000000000e+01 0. 9.
       21     1     3     0   101   102 -1.6550729264e+01 -1.8549917566e+01 -2.6408178929e+00  2.5000000000e+01  0.0000000000e+00 0. 9.
       21     1     3     0   102   101  1.6550729264e+01  1.8549917566e+01  2.6408178929e+00  2.5000000000e+01  0.0000000000e+00 0. 9.
#pdf   11  -11  1.000000e+00  1.000000e+00  5.000000e+01  1.000000e+00  1.000000e+00
</event>
<event>
     5  9999  1.000000e+00  5.000000e+01  7.764622e-03  1.436968e-01
       11    -1     0     0     0     0  0.0000000000e+00  0.0000000000e+00  2.5000000000e+01  2.5000000000e+01  0.0000000000e+00 0. 9.
      -11    -1     0     0     0     0  0.0000000000e+00  0.0000000000e+00 -2.5000000000e+01  2.5000000000e+01  0.0000000000e+00 0. 9.
       25     2     1     2     0     0  0.0000000000e+00  0.0000000000e+00  0.0000000000e+00  5.0000000000e+01  5.0000000000e+01 0. 9.
       21     1     3     0   101   102 -2.4934930652e+01 -1.7308631102e+00  5.0333516565e-01  2.5000000000e+01  0.0000000000e+00 0. 9.
       21     1     3     0   102   101  2.4934930652e+01  1.7308631102e+00 -5.0333516565e-01  2.5000000000e+01  0.0000000000e+00 0. 9.
#pdf   11  -11  1.000000e+00  1.000000e+00  5.000000e+01  1.000000e+00  1.000000e+00
</event>
<event>
     5  9999  1.000000e+00  5.000000e+01  7.764622e-03  1.436968e-01
       11    -1     0     0     0     0  0.0000000000e+00  0.0000000000e+00  2.5000000000e+01  2.5000000000e+01  0.0000000000e+00 0. 9.
      -11    -1     0     0     0     0  0.0000000000e+00  0.0000000000e+00 -2.5000000000e+01  2.5000000000e+01  0.0000000000e+00 0. 9.
       25     2     1     2     0     0  0.0000000000e+00  0.0000000000e+00  0.0000000000e+00  5.0000000000e+01  5.0000000000e+01 0. 9.
       21     1     3     0   101   102  1.1937225301e+01 -2.1958242417e+01  5.8158583263e-01  2.5000000000e+01  0.0000000000e+00 0. 9.
       21     1     3     0   102   101 -1.1937225301e+01  2.1958242417e+01 -5.8158583263e-01  2.5000000000e+01  0.0000000000e+00 0. 9.
#pdf   11  -11  1.000000e+00  1.000000e+00  5.000000e+01  1.000000e+00  1.000000e+00
</event>
<event>
     5  9999  1.000000e+00  5.000000e+01  7.764622e-03  1.436968e-01
       11    -1     0     0     0     0  0.0000000000e+00  0.0000000000e+00  2.5000000000e+01  2.5000000000e+01  0.0000000000e+00 0. 9.
      -11    -1     0     0     0     0  0.0000000000e+00  0.0000000000e+00 -2.5000000000e+01  2.5000000000e+01  0.0000000000e+00 0. 9.
       25     2     1     2     0     0  0.0000000000e+00  0.0000000000e+00  0.0000000000e+00  5.0000000000e+01  5.0000000000e+01 0. 9.
       21     1     3     0   101   102  1.9662790170e+01 -5.2349344103e+00 -1.4524811339e+01  2.5000000000e+01  0.0000000000e+00 0. 9.
       21     1     3     0   102   101 -1.9662790170e+01  5.2349344103e+00  1.4524811339e+01  2.5000000000e+01  0.0000000000e+00 0. 9.
#pdf   11  -11  1.000000e+00  1.000000e+00  5.000000e+01  1.000000e+00  1.000000e+00
</event>
<event>
     5  9999  1.000000e+00  5.000000e+01  7.764622e-03  1.436968e-01
       11    -1     0     0     0     0  0.0000000000e+00  0.0000000000e+00  2.5000000000e+01  2.5000000000e+01  0.0000000000e+00 0. 9.
      -11    -1     0     0     0     0  0.0000000000e+00  0.0000000000e+00 -2.5000000000e+01  2.5000000000e+01  0.0000000000e+00 0. 9.
       25     2     1     2     0     0  0.0000000000e+00  0.0000000000e+00  0.0000000000e+00  5.0000000000e+01  5.0000000000e+01 0. 9.
       21     1     3     0   101   102  2.3396650378e+01  8.2411589955e+00 -3.1112777890e+00  2.5000000000e+01  0.0000000000e+00 0. 9.
       21     1     3     0   102   101 -2.3396650378e+01 -8.2411589955e+00  3.1112777890e+00  2.5000000000e+01  0.0000000000e+00 0. 9.
#pdf   11  -11  1.000000e+00  1.000000e+00  5.000000e+01  1.000000e+00  1.000000e+00
</event>
<event>
     5  9999  1.000000e+00  5.000000e+01  7.764622e-03  1.436968e-01
       11    -1     0     0     0     0  0.0000000000e+00  0.0000000000e+00  2.5000000000e+01  2.5000000000e+01  0.0000000000e+00 0. 9.
      -11    -1     0     0     0     0  0.0000000000e+00  0.0000000000e+00 -2.5000000000e+01  2.5000000000e+01  0.0000000000e+00 0. 9.
       25     2     1     2     0     0  0.0000000000e+00  0.0000000000e+00  0.0000000000e+00  5.0000000000e+01  5.0000000000e+01 0. 9.
       21     1     3     0   101   102  2.3128840011e+01 -9.8832100661e-01  9.4382191829e+00  2.5000000000e+01  0.0000000000e+00 0. 9.
       21     1     3     0   102   101 -2.3128840011e+01  9.8832100661e-01 -9.4382191829e+00  2.5000000000e+01  0.0000000000e+00 0. 9.
#pdf   11  -11  1.000000e+00  1.000000e+00  5.000000e+01  1.000000e+00  1.000000e+00
</event>
<event>
     5  9999  1.000000e+00  5.000000e+01  7.764622e-03  1.436968e-01
       11    -1     0     0     0     0  0.0000000000e+00  0.0000000000e+00  2.5000000000e+01  2.5000000000e+01  0.0000000000e+00 0. 9.
      -11    -1     0     0     0     0  0.0000000000e+00  0.0000000000e+00 -2.5000000000e+01  2.5000000000e+01  0.0000000000e+00 0. 9.
       25     2     1     2     0     0  0.0000000000e+00  0.0000000000e+00  0.0000000000e+00  5.0000000000e+01  5.0000000000e+01 0. 9.
       21     1     3     0   101   102  2.0782393683e+01  9.4728063679e+00  1.0166516234e+01  2.5000000000e+01  0.0000000000e+00 0. 9.
       21     1     3     0   102   101 -2.0782393683e+01 -9.4728063679e+00 -1.0166516234e+01  2.5000000000e+01  0.0000000000e+00 0. 9.
#pdf   11  -11  1.000000e+00  1.000000e+00  5.000000e+01  1.000000e+00  1.000000e+00
</event>
<event>
     5  9999  1.000000e+00  5.000000e+01  7.764622e-03  1.436968e-01
       11    -1     0     0     0     0  0.0000000000e+00  0.0000000000e+00  2.5000000000e+01  2.5000000000e+01  0.0000000000e+00 0. 9.
      -11    -1     0     0     0     0  0.0000000000e+00  0.0000000000e+00 -2.5000000000e+01  2.5000000000e+01  0.0000000000e+00 0. 9.
       25     2     1     2     0     0  0.0000000000e+00  0.0000000000e+00  0.0000000000e+00  5.0000000000e+01  5.0000000000e+01 0. 9.
       21     1     3     0   101   102  6.5458965423e+00 -2.0150213934e+01 -1.3271025465e+01  2.5000000000e+01  0.0000000000e+00 0. 9.
       21     1     3     0   102   101 -6.5458965423e+00  2.0150213934e+01  1.3271025465e+01  2.5000000000e+01  0.0000000000e+00 0. 9.
#pdf   11  -11  1.000000e+00  1.000000e+00  5.000000e+01  1.000000e+00  1.000000e+00
</event>
<event>
     5  9999  1.000000e+00  5.000000e+01  7.764622e-03  1.436968e-01
       11    -1     0     0     0     0  0.0000000000e+00  0.0000000000e+00  2.5000000000e+01  2.5000000000e+01  0.0000000000e+00 0. 9.
      -11    -1     0     0     0     0  0.0000000000e+00  0.0000000000e+00 -2.5000000000e+01  2.5000000000e+01  0.0000000000e+00 0. 9.
       25     2     1     2     0     0  0.0000000000e+00  0.0000000000e+00  0.0000000000e+00  5.0000000000e+01  5.0000000000e+01 0. 9.
       21     1     3     0   101   102  7.2772998169e+00 -9.9322258105e+00  2.1757568748e+01  2.5000000000e+01  0.0000000000e+00 0. 9.
       21     1     3     0   102   101 -7.2772998169e+00  9.9322258105e+00 -2.1757568748e+01  2.5000000000e+01  0.0000000000e+00 0. 9.
#pdf   11  -11  1.000000e+00  1.000000e+00  5.000000e+01  1.000000e+00  1.000000e+00
</event>
<event>
     5  9999  1.000000e+00  5.000000e+01  7.764622e-03  1.436968e-01
       11    -1     0     0     0     0  0.0000000000e+00  0.0000000000e+00  2.5000000000e+01  2.5000000000e+01  0.0000000000e+00 0. 9.
      -11    -1     0     0     0     0  0.0000000000e+00  0.0000000000e+00 -2.5000000000e+01  2.5000000000e+01  0.0000000000e+00 0. 9.
       25     2     1     2     0     0  0.0000000000e+00  0.0000000000e+00  0.0000000000e+00  5.0000000000e+01  5.0000000000e+01 0. 9.
       21     1     3     0   101   102 -8.0778594993e+00 -1.8965560955e+01 -1.4144104198e+01  2.5000000000e+01  0.0000000000e+00 0. 9.
       21     1     3     0   102   101  8.0778594993e+00  1.8965560955e+01  1.4144104198e+01  2.5000000000e+01  0.0000000000e+00 0. 9.
#pdf   11  -11  1.000000e+00  1.000000e+00  5.000000e+01  1.000000e+00  1.000000e+00
</event>
<event>
     5  9999  1.000000e+00  5.000000e+01  7.764622e-03  1.436968e-01
       11    -1     0     0     0     0  0.0000000000e+00  0.0000000000e+00  2.5000000000e+01  2.5000000000e+01  0.0000000000e+00 0. 9.
      -11    -1     0     0     0     0  0.0000000000e+00  0.0000000000e+00 -2.5000000000e+01  2.5000000000e+01  0.0000000000e+00 0. 9.
       25     2     1     2     0     0  0.0000000000e+00  0.0000000000e+00  0.0000000000e+00  5.0000000000e+01  5.0000000000e+01 0. 9.
       21     1     3     0   101   102 -1.8983757916e+01 -1.4079626477e+01 -8.1474568822e+00  2.5000000000e+01  0.0000000000e+00 0. 9.
       21     1     3     0   102   101  1.8983757916e+01  1.4079626477e+01  8.1474568822e+00  2.5000000000e+01  0.0000000000e+00 0. 9.
#pdf   11  -11  1.000000e+00  1.000000e+00  5.000000e+01  1.000000e+00  1.000000e+00
</event>
<event>
     5  9999  1.000000e+00  5.000000e+01  7.764622e-03  1.436968e-01
       11    -1     0     0     0     0  0.0000000000e+00  0.0000000000e+00  2.5000000000e+01  2.5000000000e+01  0.0000000000e+00 0. 9.
      -11    -1     0     0     0     0  0.0000000000e+00  0.0000000000e+00 -2.5000000000e+01  2.5000000000e+01  0.0000000000e+00 0. 9.
       25     2     1     2     0     0  0.0000000000e+00  0.0000000000e+00  0.0000000000e+00  5.0000000000e+01  5.0000000000e+01 0. 9.
       21     1     3     0   101   102 -2.3890262234e+01  1.6658493855e+00  7.1749784833e+00  2.5000000000e+01  0.0000000000e+00 0. 9.
       21     1     3     0   102   101  2.3890262234e+01 -1.6658493855e+00 -7.1749784833e+00  2.5000000000e+01  0.0000000000e+00 0. 9.
#pdf   11  -11  1.000000e+00  1.000000e+00  5.000000e+01  1.000000e+00  1.000000e+00
</event>
<event>
     5  9999  1.000000e+00  5.000000e+01  7.764622e-03  1.436968e-01
       11    -1     0     0     0     0  0.0000000000e+00  0.0000000000e+00  2.5000000000e+01  2.5000000000e+01  0.0000000000e+00 0. 9.
      -11    -1     0     0     0     0  0.0000000000e+00  0.0000000000e+00 -2.5000000000e+01  2.5000000000e+01  0.0000000000e+00 0. 9.
       25     2     1     2     0     0  0.0000000000e+00  0.0000000000e+00  0.0000000000e+00  5.0000000000e+01  5.0000000000e+01 0. 9.
       21     1     3     0   101   102  2.0717102919e+01  1.8090571994e+00 -1.3875480485e+01  2.5000000000e+01  0.0000000000e+00 0. 9.
       21     1     3     0   102   101 -2.0717102919e+01 -1.8090571994e+00  1.3875480485e+01  2.5000000000e+01  0.0000000000e+00 0. 9.
#pdf   11  -11  1.000000e+00  1.000000e+00  5.000000e+01  1.000000e+00  1.000000e+00
</event>
<event>
     5  9999  1.000000e+00  5.000000e+01  7.764622e-03  1.436968e-01
       11    -1     0     0     0     0  0.0000000000e+00  0.0000000000e+00  2.5000000000e+01  2.5000000000e+01  0.0000000000e+00 0. 9.
      -11    -1     0     0     0     0  0.0000000000e+00  0.0000000000e+00 -2.5000000000e+01  2.5000000000e+01  0.0000000000e+00 0. 9.
       25     2     1     2     0     0  0.0000000000e+00  0.0000000000e+00  0.0000000000e+00  5.0000000000e+01  5.0000000000e+01 0. 9.
       21     1     3     0   101   102  2.4031590722e+01  5.0247385537e+00 -4.7153631727e+00  2.5000000000e+01  0.0000000000e+00 0. 9.
       21     1     3     0   102   101 -2.4031590722e+01 -5.0247385537e+00  4.7153631727e+00  2.5000000000e+01  0.0000000000e+00 0. 9.
#pdf   11  -11  1.000000e+00  1.000000e+00  5.000000e+01  1.000000e+00  1.000000e+00
</event>
<event>
     5  9999  1.000000e+00  5.000000e+01  7.764622e-03  1.436968e-01
       11    -1     0     0     0     0  0.0000000000e+00  0.0000000000e+00  2.5000000000e+01  2.5000000000e+01  0.0000000000e+00 0. 9.
      -11    -1     0     0     0     0  0.0000000000e+00  0.0000000000e+00 -2.5000000000e+01  2.5000000000e+01  0.0000000000e+00 0. 9.
       25     2     1     2     0     0  0.0000000000e+00  0.0000000000e+00  0.0000000000e+00  5.0000000000e+01  5.0000000000e+01 0. 9.
       21     1     3     0   101   102  7.0325909021e+00 -2.1296868188e+01 -1.1044730445e+01  2.5000000000e+01  0.0000000000e+00 0. 9.
       21     1     3     0   102   101 -7.0325909021e+00  2.1296868188e+01  1.1044730445e+01  2.5000000000e+01  0.0000000000e+00 0. 9.
#pdf   11  -11  1.000000e+00  1.000000e+00  5.000000e+01  1.000000e+00  1.000000e+00
</event>
<event>
     5  9999  1.000000e+00  5.000000e+01  7.764622e-03  1.436968e-01
       11    -1     0     0     0     0  0.0000000000e+00  0.0000000000e+00  2.5000000000e+01  2.5000000000e+01  0.0000000000e+00 0. 9.
      -11    -1     0     0     0     0  0.0000000000e+00  0.0000000000e+00 -2.5000000000e+01  2.5000000000e+01  0.0000000000e+00 0. 9.
       25     2     1     2     0     0  0.0000000000e+00  0.0000000000e+00  0.0000000000e+00  5.0000000000e+01  5.0000000000e+01 0. 9.
       21     1     3     0   101   102  1.9050373857e+01  1.5309887423e+01 -5.2621861420e+00  2.5000000000e+01  0.0000000000e+00 0. 9.
       21     1     3     0   102   101 -1.9050373857e+01 -1.5309887423e+01  5.2621861420e+00  2.5000000000e+01  0.0000000000e+00 0. 9.
#pdf   11  -11  1.000000e+00  1.000000e+00  5.000000e+01  1.000000e+00  1.000000e+00
</event>
<event>
     5  9999  1.000000e+00  5.000000e+01  7.764622e-03  1.436968e-01
       11    -1     0     0     0     0  0.0000000000e+00  0.0000000000e+00  2.5000000000e+01  2.5000000000e+01  0.0000000000e+00 0. 9.
      -11    -1     0     0     0     0  0.0000000000e+00  0.0000000000e+00 -2.5000000000e+01  2.5000000000e+01  0.0000000000e+00 0. 9.
       25     2     1     2     0     0  0.0000000000e+00  0.0000000000e+00  0.0000000000e+00  5.0000000000e+01  5.0000000000e+01 0. 9.
       21     1     3     0   101   102  1.9996228766e+00  7.3693920527e+00  2.3805326486e+01  2.5000000000e+01  0.0000000000e+00 0. 9.
       21     1     3     0   102   101 -1.9996228766e+00 -7.3693920527e+00 -2.3805326486e+01  2.5000000000e+01  0.0000000000e+00 0. 9.
#pdf   11  -11  1.000000e+00  1.000000e+00  5.000000e+01  1.000000e+00  1.000000e+00
</event>
<event>
     5  9999  1.000000e+00  5.000000e+01  7.764622e-03  1.436968e-01
       11    -1     0     0     0     0  0.0000000000e+00  0.0000000000e+00  2.5000000000e+01  2.5000000000e+01  0.0000000000e+00 0. 9.
      -11    -1     0     0     0     0  0.0000000000e+00  0.0000000000e+00 -2.5000000000e+01  2.5000000000e+01  0.0000000000e+00 0. 9.
       25     2     1     2     0     0  0.0000000000e+00  0.0000000000e+00  0.0000000000e+00  5.0000000000e+01  5.0000000000e+01 0. 9.
       21     1     3     0   101   102 -1.8178950038e+01  1.6282714033e+01 -5.4220843979e+00  2.5000000000e+01  0.0000000000e+00 0. 9.
       21     1     3     0   102   101  1.8178950038e+01 -1.6282714033e+01  5.4220843979e+00  2.5000000000e+01  0.0000000000e+00 0. 9.
#pdf   11  -11  1.000000e+00  1.000000e+00  5.000000e+01  1.000000e+00  1.000000e+00
</event>
<event>
     5  9999  1.000000e+00  5.000000e+01  7.764622e-03  1.436968e-01
       11    -1     0     0     0     0  0.0000000000e+00  0.0000000000e+00  2.5000000000e+01  2.5000000000e+01  0.0000000000e+00 0. 9.
      -11    -1     0     0     0     0  0.0000000000e+00  0.0000000000e+00 -2.5000000000e+01  2.5000000000e+01  0.0000000000e+00 0. 9.
       25     2     1     2     0     0  0.0000000000e+00  0.0000000000e+00  0.0000000000e+00  5.0000000000e+01  5.0000000000e+01 0. 9.
       21     1     3     0   101   102  1.1611933804e+01 -2.1465904372e+01 -5.4201423240e+00  2.5000000000e+01  0.0000000000e+00 0. 9.
       21     1     3     0   102   101 -1.1611933804e+01  2.1465904372e+01  5.4201423240e+00  2.5000000000e+01  0.0000000000e+00 0. 9.
#pdf   11  -11  1.000000e+00  1.000000e+00  5.000000e+01  1.000000e+00  1.000000e+00
</event>
<event>
     5  9999  1.000000e+00  5.000000e+01  7.764622e-03  1.436968e-01
       11    -1     0     0     0     0  0.0000000000e+00  0.0000000000e+00  2.5000000000e+01  2.5000000000e+01  0.0000000000e+00 0. 9.
      -11    -1     0     0     0     0  0.0000000000e+00  0.0000000000e+00 -2.5000000000e+01  2.5000000000e+01  0.0000000000e+00 0. 9.
       25     2     1     2     0     0  0.0000000000e+00  0.0000000000e+00  0.0000000000e+00  5.0000000000e+01  5.0000000000e+01 0. 9.
       21     1     3     0   101   102 -5.2128063467e-03 -1.9522614657e+01 -1.5616257227e+01  2.5000000000e+01  0.0000000000e+00 0. 9.
       21     1     3     0   102   101  5.2128063467e-03  1.9522614657e+01  1.5616257227e+01  2.5000000000e+01  0.0000000000e+00 0. 9.
#pdf   11  -11  1.000000e+00  1.000000e+00  5.000000e+01  1.000000e+00  1.000000e+00
</event>
<event>
     5  9999  1.000000e+00  5.000000e+01  7.764622e-03  1.436968e-01
       11    -1     0     0     0     0  0.0000000000e+00  0.0000000000e+00  2.5000000000e+01  2.5000000000e+01  0.0000000000e+00 0. 9.
      -11    -1     0     0     0     0  0.0000000000e+00  0.0000000000e+00 -2.5000000000e+01  2.5000000000e+01  0.0000000000e+00 0. 9.
       25     2     1     2     0     0  0.0000000000e+00  0.0000000000e+00  0.0000000000e+00  5.0000000000e+01  5.0000000000e+01 0. 9.
       21     1     3     0   101   102 -1.4085057670e+01 -1.9012294313e+01 -8.0711718733e+00  2.5000000000e+01  0.0000000000e+00 0. 9.
       21     1     3     0   102   101  1.4085057670e+01  1.9012294313e+01  8.0711718733e+00  2.5000000000e+01  0.0000000000e+00 0. 9.
#pdf   11  -11  1.000000e+00  1.000000e+00  5.000000e+01  1.000000e+00  1.000000e+00
</event>
<event>
     5  9999  1.000000e+00  5.000000e+01  7.764622e-03  1.436968e-01
       11    -1     0     0     0     0  0.0000000000e+00  0.0000000000e+00  2.5000000000e+01  2.5000000000e+01  0.0000000000e+00 0. 9.
      -11    -1     0     0     0     0  0.0000000000e+00  0.0000000000e+00 -2.5000000000e+01  2.5000000000e+01  0.0000000000e+00 0. 9.
       25     2     1     2     0     0  0.0000000000e+00  0.0000000000e+00  0.0000000000e+00  5.0000000000e+01  5.0000000000e+01 0. 9.
       21     1     3     0   101   102  1.8243153007e+01  1.5737769857e+01  6.6715791435e+00  2.5000000000e+01  0.0000000000e+00 0. 9.
       21     1     3     0   102   101 -1.8243153007e+01 -1.5737769857e+01 -6.6715791435e+00  2.5000000000e+01  0.0000000000e+00 0. 9.
#pdf   11  -11  1.000000e+00  1.000000e+00  5.000000e+01  1.000000e+00  1.000000e+00
</event>
<event>
     5  9999  1.000000e+00  5.000000e+01  7.764622e-03  1.436968e-01
       11    -1     0     0     0     0  0.0000000000e+00  0.0000000000e+00  2.5000000000e+01  2.5000000000e+01  0.0000000000e+00 0. 9.
      -11    -1     0     0     0     0  0.0000000000e+00  0.0000000000e+00 -2.5000000000e+01  2.5000000000e+01  0.0000000000e+00 0. 9.
       25     2     1     2     0     0  0.0000000000e+00  0.0000000000e+00  0.0000000000e+00  5.0000000000e+01  5.0000000000e+01 0. 9.
       21     1     3     0   101   102  1.4847897337e+01  2.0024327690e+01 -1.8884504861e+00  2.5000000000e+01  0.0000000000e+00 0. 9.
       21     1     3     0   102   101 -1.4847897337e+01 -2.0024327690e+01  1.8884504861e+00  2.5000000000e+01  0.0000000000e+00 0. 9.
#pdf   11  -11  1.000000e+00  1.000000e+00  5.000000e+01  1.000000e+00  1.000000e+00
</event>
<event>
     5  9999  1.000000e+00  5.000000e+01  7.764622e-03  1.436968e-01
       11    -1     0     0     0     0  0.0000000000e+00  0.0000000000e+00  2.5000000000e+01  2.5000000000e+01  0.0000000000e+00 0. 9.
      -11    -1     0     0     0     0  0.0000000000e+00  0.0000000000e+00 -2.5000000000e+01  2.5000000000e+01  0.0000000000e+00 0. 9.
       25     2     1     2     0     0  0.0000000000e+00  0.0000000000e+00  0.0000000000e+00  5.0000000000e+01  5.0000000000e+01 0. 9.
       21     1     3     0   101   102 -3.6124256324e+00 -1.9252775259e+01 -1.5533223293e+01  2.5000000000e+01  0.0000000000e+00 0. 9.
       21     1     3     0   102   101  3.6124256324e+00  1.9252775259e+01  1.5533223293e+01  2.5000000000e+01  0.0000000000e+00 0. 9.
#pdf   11  -11  1.000000e+00  1.000000e+00  5.000000e+01  1.000000e+00  1.000000e+00
</event>
<event>
     5  9999  1.000000e+00  5.000000e+01  7.764622e-03  1.436968e-01
       11    -1     0     0     0     0  0.0000000000e+00  0.0000000000e+00  2.5000000000e+01  2.5000000000e+01  0.0000000000e+00 0. 9.
      -11    -1     0     0     0     0  0.0000000000e+00  0.0000000000e+00 -2.5000000000e+01  2.5000000000e+01  0.0000000000e+00 0. 9.
       25     2     1     2     0     0  0.0000000000e+00  0.0000000000e+00  0.0000000000e+00  5.0000000000e+01  5.0000000000e+01 0. 9.
       21     1     3     0   101   102  3.3882062473e+00 -1.3533093422e+01 -2.0745492061e+01  2.5000000000e+01  0.0000000000e+00 0. 9.
       21     1     3     0   102   101 -3.3882062473e+00  1.3533093422e+01  2.0745492061e+01  2.5000000000e+01  0.0000000000e+00 0. 9.
#pdf   11  -11  1.000000e+00  1.000000e+00  5.000000e+01  1.000000e+00  1.000000e+00
</event>
<event>
     5  9999  1.000000e+00  5.000000e+01  7.764622e-03  1.436968e-01
       11    -1     0     0     0     0  0.0000000000e+00  0.0000000000e+00  2.5000000000e+01  2.5000000000e+01  0.0000000000e+00 0. 9.
      -11    -1     0     0     0     0  0.0000000000e+00  0.0000000000e+00 -2.5000000000e+01  2.5000000000e+01  0.0000000000e+00 0. 9.
       25     2     1     2     0     0  0.0000000000e+00  0.0000000000e+00  0.0000000000e+00  5.0000000000e+01  5.0000000000e+01 0. 9.
       21     1     3     0   101   102  2.2435646478e+01  9.9884550143e+00  4.6768080528e+00  2.5000000000e+01  0.0000000000e+00 0. 9.
       21     1     3     0   102   101 -2.2435646478e+01 -9.9884550143e+00 -4.6768080528e+00  2.5000000000e+01  0.0000000000e+00 0. 9.
#pdf   11  -11  1.000000e+00  1.000000e+00  5.000000e+01  1.000000e+00  1.000000e+00
</event>
<event>
     5  9999  1.000000e+00  5.000000e+01  7.764622e-03  1.436968e-01
       11    -1     0     0     0     0  0.0000000000e+00  0.0000000000e+00  2.5000000000e+01  2.5000000000e+01  0.0000000000e+00 0. 9.
      -11    -1     0     0     0     0  0.0000000000e+00  0.0000000000e+00 -2.5000000000e+01  2.5000000000e+01  0.0000000000e+00 0. 9.
       25     2     1     2     0     0  0.0000000000e+00  0.0000000000e+00  0.0000000000e+00  5.0000000000e+01  5.0000000000e+01 0. 9.
       21     1     3     0   101   102  6.8562615395e+00 -2.3253697112e+01  6.1038715840e+00  2.5000000000e+01  0.0000000000e+00 0. 9.
       21     1     3     0   102   101 -6.8562615395e+00  2.3253697112e+01 -6.1038715840e+00  2.5000000000e+01  0.0000000000e+00 0. 9.
#pdf   11  -11  1.000000e+00  1.000000e+00  5.000000e+01  1.000000e+00  1.000000e+00
</event>
<event>
     5  9999  1.000000e+00  5.000000e+01  7.764622e-03  1.436968e-01
       11    -1     0     0     0     0  0.0000000000e+00  0.0000000000e+00  2.5000000000e+01  2.5000000000e+01  0.0000000000e+00 0. 9.
      -11    -1     0     0     0     0  0.0000000000e+00  0.0000000000e+00 -2.5000000000e+01  2.5000000000e+01  0.0000000000e+00 0. 9.
       25     2     1     2     0     0  0.0000000000e+00  0.0000000000e+00  0.0000000000e+00  5.0000000000e+01  5.0000000000e+01 0. 9.
       21     1     3     0   101   102  1.6208709334e+01 -1.6174848913e+01 -1.0032547252e+01  2.5000000000e+01  0.0000000000e+00 0. 9.
       21     1     3     0   102   101 -1.6208709334e+01  1.6174848913e+01  1.0032547252e+01  2.5000000000e+01  0.0000000000e+00 0. 9.
#pdf   11  -11  1.000000e+00  1.000000e+00  5.000000e+01  1.000000e+00  1.000000e+00
</event>
<event>
     5  9999  1.000000e+00  5.000000e+01  7.764622e-03  1.436968e-01
       11    -1     0     0     0     0  0.0000000000e+00  0.0000000000e+00  2.5000000000e+01  2.5000000000e+01  0.0000000000e+00 0. 9.
      -11    -1     0     0     0     0  0.0000000000e+00  0.0000000000e+00 -2.5000000000e+01  2.5000000000e+01  0.0000000000e+00 0. 9.
       25     2     1     2     0     0  0.0000000000e+00  0.0000000000e+00  0.0000000000e+00  5.0000000000e+01  5.0000000000e+01 0. 9.
       21     1     3     0   101   102 -2.1141561508e+01  5.6022340532e+00 -1.2109886482e+01  2.5000000000e+01  0.0000000000e+00 0. 9.
       21     1     3     0   102   101  2.1141561508e+01 -5.6022340532e+00  1.2109886482e+01  2.5000000000e+01  0.0000000000e+00 0. 9.
#pdf   11  -11  1.000000e+00  1.000000e+00  5.000000e+01  1.000000e+00  1.000000e+00
</event>
<event>
     5  9999  1.000000e+00  5.000000e+01  7.764622e-03  1.436968e-01
       11    -1     0     0     0     0  0.0000000000e+00  0.0000000000e+00  2.5000000000e+01  2.5000000000e+01  0.0000000000e+00 0. 9.
      -11    -1     0     0     0     0  0.0000000000e+00  0.0000000000e+00 -2.5000000000e+01  2.5000000000e+01  0.0000000000e+00 0. 9.
       25     2     1     2     0     0  0.0000000000e+00  0.0000000000e+00  0.0000000000e+00  5.0000000000e+01  5.0000000000e+01 0. 9.
       21     1     3     0   101   102 -6.7976883002e+00  5.3868394728e+00  2.3447247051e+01  2.5000000000e+01  0.0000000000e+00 0. 9.
       21     1     3     0   102   101  6.7976883002e+00 -5.3868394728e+00 -2.3447247051e+01  2.5000000000e+01  0.0000000000e+00 0. 9.
#pdf   11  -11  1.000000e+00  1.000000e+00  5.000000e+01  1.000000e+00  1.000000e+00
</event>
<event>
     5  9999  1.000000e+00  5.000000e+01  7.764622e-03  1.436968e-01
       11    -1     0     0     0     0  0.0000000000e+00  0.0000000000e+00  2.5000000000e+01  2.5000000000e+01  0.0000000000e+00 0. 9.
      -11    -1     0     0     0     0  0.0000000000e+00  0.0000000000e+00 -2.5000000000e+01  2.5000000000e+01  0.0000000000e+00 0. 9.
       25     2     1     2     0     0  0.0000000000e+00  0.0000000000e+00  0.0000000000e+00  5.0000000000e+01  5.0000000000e+01 0. 9.
       21     1     3     0   101   102  1.9443987179e+00  2.1012938092e+01  1.3404318199e+01  2.5000000000e+01  0.0000000000e+00 0. 9.
       21     1     3     0   102   101 -1.9443987179e+00 -2.1012938092e+01 -1.3404318199e+01  2.5000000000e+01  0.0000000000e+00 0. 9.
#pdf   11  -11  1.000000e+00  1.000000e+00  5.000000e+01  1.000000e+00  1.000000e+00
</event>
<event>
     5  9999  1.000000e+00  5.000000e+01  7.764622e-03  1.436968e-01
       11    -1     0     0     0     0  0.0000000000e+00  0.0000000000e+00  2.5000000000e+01  2.5000000000e+01  0.0000000000e+00 0. 9.
      -11    -1     0     0     0     0  0.0000000000e+00  0.0000000000e+00 -2.5000000000e+01  2.5000000000e+01  0.0000000000e+00 0. 9.
       25     2     1     2     0     0  0.0000000000e+00  0.0000000000e+00  0.0000000000e+00  5.0000000000e+01  5.0000000000e+01 0. 9.
       21     1     3     0   101   102  1.4801161384e+00 -1.1010222216e+01 -2.2396076955e+01  2.5000000000e+01  0.0000000000e+00 0. 9.
       21     1     3     0   102   101 -1.4801161384e+00  1.1010222216e+01  2.2396076955e+01  2.5000000000e+01  0.0000000000e+00 0. 9.
#pdf   11  -11  1.000000e+00  1.000000e+00  5.000000e+01  1.000000e+00  1.000000e+00
</event>
<event>
     5  9999  1.000000e+00  5.000000e+01  7.764622e-03  1.436968e-01
       11    -1     0     0     0     0  0.0000000000e+00  0.0000000000e+00  2.5000000000e+01  2.5000000000e+01  0.0000000000e+00 0. 9.
      -11    -1     0     0     0     0  0.0000000000e+00  0.0000000000e+00 -2.5000000000e+01  2.5000000000e+01  0.0000000000e+00 0. 9.
       25     2     1     2     0     0  0.0000000000e+00  0.0000000000e+00  0.0000000000e+00  5.0000000000e+01  5.0000000000e+01 0. 9.
       21     1     3     0   101   102  1.1540098467e+01  1.2504874160e+01  1.8315410167e+01  2.5000000000e+01  0.0000000000e+00 0. 9.
       21     1     3     0   102   101 -1.1540098467e+01 -1.2504874160e+01 -1.8315410167e+01  2.5000000000e+01  0.0000000000e+00 0. 9.
#pdf   11  -11  1.000000e+00  1.000000e+00  5.000000e+01  1.000000e+00  1.000000e+00
</event>
<event>
     5  9999  1.000000e+00  5.000000e+01  7.764622e-03  1.436968e-01
       11    -1     0     0     0     0  0.0000000000e+00  0.0000000000e+00  2.5000000000e+01  2.5000000000e+01  0.0000000000e+00 0. 9.
      -11    -1     0     0     0     0  0.0000000000e+00  0.0000000000e+00 -2.5000000000e+01  2.5000000000e+01  0.0000000000e+00 0. 9.
       25     2     1     2     0     0  0.0000000000e+00  0.0000000000e+00  0.0000000000e+00  5.0000000000e+01  5.0000000000e+01 0. 9.
       21     1     3     0   101   102 -4.7976529440e+00  2.4408553733e+01  2.4909899390e+00  2.5000000000e+01  0.0000000000e+00 0. 9.
       21     1     3     0   102   101  4.7976529440e+00 -2.4408553733e+01 -2.4909899390e+00  2.5000000000e+01  0.0000000000e+00 0. 9.
#pdf   11  -11  1.000000e+00  1.000000e+00  5.000000e+01  1.000000e+00  1.000000e+00
</event>
<event>
     5  9999  1.000000e+00  5.000000e+01  7.764622e-03  1.436968e-01
       11    -1     0     0     0     0  0.0000000000e+00  0.0000000000e+00  2.5000000000e+01  2.5000000000e+01  0.0000000000e+00 0. 9.
      -11    -1     0     0     0     0  0.0000000000e+00  0.0000000000e+00 -2.5000000000e+01  2.5000000000e+01  0.0000000000e+00 0. 9.
       25     2     1     2     0     0  0.0000000000e+00  0.0000000000e+00  0.0000000000e+00  5.0000000000e+01  5.0000000000e+01 0. 9.
       21     1     3     0   101   102 -2.6971649211e+00  2.4845011974e+01  6.7132808124e-01  2.5000000000e+01  0.0000000000e+00 0. 9.
       21     1     3     0   102   101  2.6971649211e+00 -2.4845011974e+01 -6.7132808124e-01  2.5000000000e+01  0.0000000000e+00 0. 9.
#pdf   11  -11  1.000000e+00  1.000000e+00  5.000000e+01  1.000000e+00  1.000000e+00
</event>
<event>
     5  9999  1.000000e+00  5.000000e+01  7.764622e-03  1.436968e-01
       11    -1     0     0     0     0  0.0000000000e+00  0.0000000000e+00  2.5000000000e+01  2.5000000000e+01  0.0000000000e+00 0. 9.
      -11    -1     0     0     0     0  0.0000000000e+00  0.0000000000e+00 -2.5000000000e+01  2.5000000000e+01  0.0000000000e+00 0. 9.
       25     2     1     2     0     0  0.0000000000e+00  0.0000000000e+00  0.0000000000e+00  5.0000000000e+01  5.0000000000e+01 0. 9.
       21     1     3     0   101   102 -1.0583244386e+01 -2.2019313642e+01 -5.3051639952e+00  2.5000000000e+01  0.0000000000e+00 0. 9.
       21     1     3     0   102   101  1.0583244386e+01  2.2019313642e+01  5.3051639952e+00  2.5000000000e+01  0.0000000000e+00 0. 9.
#pdf   11  -11  1.000000e+00  1.000000e+00  5.000000e+01  1.000000e+00  1.000000e+00
</event>
<event>
     5  9999  1.000000e+00  5.000000e+01  7.764622e-03  1.436968e-01
       11    -1     0     0     0     0  0.0000000000e+00  0.0000000000e+00  2.5000000000e+01  2.5000000000e+01  0.0000000000e+00 0. 9.
      -11    -1     0     0     0     0  0.0000000000e+00  0.0000000000e+00 -2.5000000000e+01  2.5000000000e+01  0.0000000000e+00 0. 9.
       25     2     1     2     0     0  0.0000000000e+00  0.0000000000e+00  0.0000000000e+00  5.0000000000e+01  5.0000000000e+01 0. 9.
       21     1     3     0   101   102  1.9420781994e+01  5.5898949634e+00  1.4716871306e+01  2.5000000000e+01  0.0000000000e+00 0. 9.
       21     1     3     0   102   101 -1.9420781994e+01 -5.5898949634e+00 -1.4716871306e+01  2.5000000000e+01  0.0000000000e+00 0. 9.
#pdf   11  -11  1.000000e+00  1.000000e+00  5.000000e+01  1.000000e+00  1.000000e+00
</event>
<event>
     5  9999  1.000000e+00  5.000000e+01  7.764622e-03  1.436968e-01
       11    -1     0     0     0     0  0.0000000000e+00  0.0000000000e+00  2.5000000000e+01  2.5000000000e+01  0.0000000000e+00 0. 9.
      -11    -1     0     0     0     0  0.0000000000e+00  0.0000000000e+00 -2.5000000000e+01  2.5000000000e+01  0.0000000000e+00 0. 9.
       25     2     1     2     0     0  0.0000000000e+00  0.0000000000e+00  0.0000000000e+00  5.0000000000e+01  5.0000000000e+01 0. 9.
       21     1     3     0   101   102  1.4692297155e+00  2.4495592872e+00  2.4836284411e+01  2.5000000000e+01  0.0000000000e+00 0. 9.
       21     1     3     0   102   101 -1.4692297155e+00 -2.4495592872e+00 -2.4836284411e+01  2.5000000000e+01  0.0000000000e+00 0. 9.
#pdf   11  -11  1.000000e+00  1.000000e+00  5.000000e+01  1.000000e+00  1.000000e+00
</event>
</LesHouchesEvents>
