<LesHouchesEvents version="1.0">
<!--
  File written by Pythia8::LHAup on 06 Jun 2015 at 17:14:22
-->
<init>
  11  -11  4.000000e+02  4.000000e+02  0  0  0  0  3  1
  6.588931e-13  1.231759e-21  1.000000e+00   9999
</init>
<event>
     5  9999  1.000000e+00  8.000000e+02  8.014810e-03  9.824665e-02
       11    -1     0     0     0     0  0.0000000000e+00  0.0000000000e+00  4.0000000000e+02  4.0000000000e+02  0.0000000000e+00 0. 9.
      -11    -1     0     0     0     0  0.0000000000e+00  0.0000000000e+00 -4.0000000000e+02  4.0000000000e+02  0.0000000000e+00 0. 9.
       25     2     1     2     0     0  0.0000000000e+00  0.0000000000e+00  0.0000000000e+00  8.0000000000e+02  8.0000000000e+02 0. 9.
       21     1     3     0   101   102 -6.3810999806e+01 -3.3547154161e+02  2.0829546580e+02  4.0000000000e+02  0.0000000000e+00 0. 9.
       21     1     3     0   102   101  6.3810999806e+01  3.3547154161e+02 -2.0829546580e+02  4.0000000000e+02  0.0000000000e+00 0. 9.
#pdf   11  -11  1.000000e+00  1.000000e+00  8.000000e+02  1.000000e+00  1.000000e+00
</event>
<event>
     5  9999  1.000000e+00  8.000000e+02  8.014810e-03  9.824665e-02
       11    -1     0     0     0     0  0.0000000000e+00  0.0000000000e+00  4.0000000000e+02  4.0000000000e+02  0.0000000000e+00 0. 9.
      -11    -1     0     0     0     0  0.0000000000e+00  0.0000000000e+00 -4.0000000000e+02  4.0000000000e+02  0.0000000000e+00 0. 9.
       25     2     1     2     0     0  0.0000000000e+00  0.0000000000e+00  0.0000000000e+00  8.0000000000e+02  8.0000000000e+02 0. 9.
       21     1     3     0   101   102  1.8263714986e+02  2.7924388358e+01  3.5477302607e+02  4.0000000000e+02  0.0000000000e+00 0. 9.
       21     1     3     0   102   101 -1.8263714986e+02 -2.7924388358e+01 -3.5477302607e+02  4.0000000000e+02  0.0000000000e+00 0. 9.
#pdf   11  -11  1.000000e+00  1.000000e+00  8.000000e+02  1.000000e+00  1.000000e+00
</event>
<event>
     5  9999  1.000000e+00  8.000000e+02  8.014810e-03  9.824665e-02
       11    -1     0     0     0     0  0.0000000000e+00  0.0000000000e+00  4.0000000000e+02  4.0000000000e+02  0.0000000000e+00 0. 9.
      -11    -1     0     0     0     0  0.0000000000e+00  0.0000000000e+00 -4.0000000000e+02  4.0000000000e+02  0.0000000000e+00 0. 9.
       25     2     1     2     0     0  0.0000000000e+00  0.0000000000e+00  0.0000000000e+00  8.0000000000e+02  8.0000000000e+02 0. 9.
       21     1     3     0   101   102 -3.7120658344e+02  1.3078776879e+02  7.1415908223e+01  4.0000000000e+02  0.0000000000e+00 0. 9.
       21     1     3     0   102   101  3.7120658344e+02 -1.3078776879e+02 -7.1415908223e+01  4.0000000000e+02  0.0000000000e+00 0. 9.
#pdf   11  -11  1.000000e+00  1.000000e+00  8.000000e+02  1.000000e+00  1.000000e+00
</event>
<event>
     5  9999  1.000000e+00  8.000000e+02  8.014810e-03  9.824665e-02
       11    -1     0     0     0     0  0.0000000000e+00  0.0000000000e+00  4.0000000000e+02  4.0000000000e+02  0.0000000000e+00 0. 9.
      -11    -1     0     0     0     0  0.0000000000e+00  0.0000000000e+00 -4.0000000000e+02  4.0000000000e+02  0.0000000000e+00 0. 9.
       25     2     1     2     0     0  0.0000000000e+00  0.0000000000e+00  0.0000000000e+00  8.0000000000e+02  8.0000000000e+02 0. 9.
       21     1     3     0   101   102  3.8083860161e+02 -8.7605287780e+01 -8.5365526289e+01  4.0000000000e+02  0.0000000000e+00 0. 9.
       21     1     3     0   102   101 -3.8083860161e+02  8.7605287780e+01  8.5365526289e+01  4.0000000000e+02  0.0000000000e+00 0. 9.
#pdf   11  -11  1.000000e+00  1.000000e+00  8.000000e+02  1.000000e+00  1.000000e+00
</event>
<event>
     5  9999  1.000000e+00  8.000000e+02  8.014810e-03  9.824665e-02
       11    -1     0     0     0     0  0.0000000000e+00  0.0000000000e+00  4.0000000000e+02  4.0000000000e+02  0.0000000000e+00 0. 9.
      -11    -1     0     0     0     0  0.0000000000e+00  0.0000000000e+00 -4.0000000000e+02  4.0000000000e+02  0.0000000000e+00 0. 9.
       25     2     1     2     0     0  0.0000000000e+00  0.0000000000e+00  0.0000000000e+00  8.0000000000e+02  8.0000000000e+02 0. 9.
       21     1     3     0   101   102  3.7476801168e+01 -2.3885070784e+02 -3.1866256250e+02  4.0000000000e+02  0.0000000000e+00 0. 9.
       21     1     3     0   102   101 -3.7476801168e+01  2.3885070784e+02  3.1866256250e+02  4.0000000000e+02  0.0000000000e+00 0. 9.
#pdf   11  -11  1.000000e+00  1.000000e+00  8.000000e+02  1.000000e+00  1.000000e+00
</event>
<event>
     5  9999  1.000000e+00  8.000000e+02  8.014810e-03  9.824665e-02
       11    -1     0     0     0     0  0.0000000000e+00  0.0000000000e+00  4.0000000000e+02  4.0000000000e+02  0.0000000000e+00 0. 9.
      -11    -1     0     0     0     0  0.0000000000e+00  0.0000000000e+00 -4.0000000000e+02  4.0000000000e+02  0.0000000000e+00 0. 9.
       25     2     1     2     0     0  0.0000000000e+00  0.0000000000e+00  0.0000000000e+00  8.0000000000e+02  8.0000000000e+02 0. 9.
       21     1     3     0   101   102 -1.9878814888e+01  1.9030428045e+01  3.9905222155e+02  4.0000000000e+02  0.0000000000e+00 0. 9.
       21     1     3     0   102   101  1.9878814888e+01 -1.9030428045e+01 -3.9905222155e+02  4.0000000000e+02  0.0000000000e+00 0. 9.
#pdf   11  -11  1.000000e+00  1.000000e+00  8.000000e+02  1.000000e+00  1.000000e+00
</event>
<event>
     5  9999  1.000000e+00  8.000000e+02  8.014810e-03  9.824665e-02
       11    -1     0     0     0     0  0.0000000000e+00  0.0000000000e+00  4.0000000000e+02  4.0000000000e+02  0.0000000000e+00 0. 9.
      -11    -1     0     0     0     0  0.0000000000e+00  0.0000000000e+00 -4.0000000000e+02  4.0000000000e+02  0.0000000000e+00 0. 9.
       25     2     1     2     0     0  0.0000000000e+00  0.0000000000e+00  0.0000000000e+00  8.0000000000e+02  8.0000000000e+02 0. 9.
       21     1     3     0   101   102  3.2396865087e+01  3.7809156166e+02 -1.2648009381e+02  4.0000000000e+02  0.0000000000e+00 0. 9.
       21     1     3     0   102   101 -3.2396865087e+01 -3.7809156166e+02  1.2648009381e+02  4.0000000000e+02  0.0000000000e+00 0. 9.
#pdf   11  -11  1.000000e+00  1.000000e+00  8.000000e+02  1.000000e+00  1.000000e+00
</event>
<event>
     5  9999  1.000000e+00  8.000000e+02  8.014810e-03  9.824665e-02
       11    -1     0     0     0     0  0.0000000000e+00  0.0000000000e+00  4.0000000000e+02  4.0000000000e+02  0.0000000000e+00 0. 9.
      -11    -1     0     0     0     0  0.0000000000e+00  0.0000000000e+00 -4.0000000000e+02  4.0000000000e+02  0.0000000000e+00 0. 9.
       25     2     1     2     0     0  0.0000000000e+00  0.0000000000e+00  0.0000000000e+00  8.0000000000e+02  8.0000000000e+02 0. 9.
       21     1     3     0   101   102 -7.1587522259e+01 -1.0991190669e+02  3.7788172677e+02  4.0000000000e+02  0.0000000000e+00 0. 9.
       21     1     3     0   102   101  7.1587522259e+01  1.0991190669e+02 -3.7788172677e+02  4.0000000000e+02  0.0000000000e+00 0. 9.
#pdf   11  -11  1.000000e+00  1.000000e+00  8.000000e+02  1.000000e+00  1.000000e+00
</event>
<event>
     5  9999  1.000000e+00  8.000000e+02  8.014810e-03  9.824665e-02
       11    -1     0     0     0     0  0.0000000000e+00  0.0000000000e+00  4.0000000000e+02  4.0000000000e+02  0.0000000000e+00 0. 9.
      -11    -1     0     0     0     0  0.0000000000e+00  0.0000000000e+00 -4.0000000000e+02  4.0000000000e+02  0.0000000000e+00 0. 9.
       25     2     1     2     0     0  0.0000000000e+00  0.0000000000e+00  0.0000000000e+00  8.0000000000e+02  8.0000000000e+02 0. 9.
       21     1     3     0   101   102 -7.9519265575e+01 -3.8112266217e+02  9.1772560065e+01  4.0000000000e+02  0.0000000000e+00 0. 9.
       21     1     3     0   102   101  7.9519265575e+01  3.8112266217e+02 -9.1772560065e+01  4.0000000000e+02  0.0000000000e+00 0. 9.
#pdf   11  -11  1.000000e+00  1.000000e+00  8.000000e+02  1.000000e+00  1.000000e+00
</event>
<event>
     5  9999  1.000000e+00  8.000000e+02  8.014810e-03  9.824665e-02
       11    -1     0     0     0     0  0.0000000000e+00  0.0000000000e+00  4.0000000000e+02  4.0000000000e+02  0.0000000000e+00 0. 9.
      -11    -1     0     0     0     0  0.0000000000e+00  0.0000000000e+00 -4.0000000000e+02  4.0000000000e+02  0.0000000000e+00 0. 9.
       25     2     1     2     0     0  0.0000000000e+00  0.0000000000e+00  0.0000000000e+00  8.0000000000e+02  8.0000000000e+02 0. 9.
       21     1     3     0   101   102  3.2228377771e+01  2.6868117988e+02  2.9457045888e+02  4.0000000000e+02  0.0000000000e+00 0. 9.
       21     1     3     0   102   101 -3.2228377771e+01 -2.6868117988e+02 -2.9457045888e+02  4.0000000000e+02  0.0000000000e+00 0. 9.
#pdf   11  -11  1.000000e+00  1.000000e+00  8.000000e+02  1.000000e+00  1.000000e+00
</event>
<event>
     5  9999  1.000000e+00  8.000000e+02  8.014810e-03  9.824665e-02
       11    -1     0     0     0     0  0.0000000000e+00  0.0000000000e+00  4.0000000000e+02  4.0000000000e+02  0.0000000000e+00 0. 9.
      -11    -1     0     0     0     0  0.0000000000e+00  0.0000000000e+00 -4.0000000000e+02  4.0000000000e+02  0.0000000000e+00 0. 9.
       25     2     1     2     0     0  0.0000000000e+00  0.0000000000e+00  0.0000000000e+00  8.0000000000e+02  8.0000000000e+02 0. 9.
       21     1     3     0   101   102  3.4845112207e+02 -1.8980498201e+02  5.0555754672e+01  4.0000000000e+02  0.0000000000e+00 0. 9.
       21     1     3     0   102   101 -3.4845112207e+02  1.8980498201e+02 -5.0555754672e+01  4.0000000000e+02  0.0000000000e+00 0. 9.
#pdf   11  -11  1.000000e+00  1.000000e+00  8.000000e+02  1.000000e+00  1.000000e+00
</event>
<event>
     5  9999  1.000000e+00  8.000000e+02  8.014810e-03  9.824665e-02
       11    -1     0     0     0     0  0.0000000000e+00  0.0000000000e+00  4.0000000000e+02  4.0000000000e+02  0.0000000000e+00 0. 9.
      -11    -1     0     0     0     0  0.0000000000e+00  0.0000000000e+00 -4.0000000000e+02  4.0000000000e+02  0.0000000000e+00 0. 9.
       25     2     1     2     0     0  0.0000000000e+00  0.0000000000e+00  0.0000000000e+00  8.0000000000e+02  8.0000000000e+02 0. 9.
       21     1     3     0   101   102 -3.8245310525e+02  7.3309135529e+01  9.1407838453e+01  4.0000000000e+02  0.0000000000e+00 0. 9.
       21     1     3     0   102   101  3.8245310525e+02 -7.3309135529e+01 -9.1407838453e+01  4.0000000000e+02  0.0000000000e+00 0. 9.
#pdf   11  -11  1.000000e+00  1.000000e+00  8.000000e+02  1.000000e+00  1.000000e+00
</event>
<event>
     5  9999  1.000000e+00  8.000000e+02  8.014810e-03  9.824665e-02
       11    -1     0     0     0     0  0.0000000000e+00  0.0000000000e+00  4.0000000000e+02  4.0000000000e+02  0.0000000000e+00 0. 9.
      -11    -1     0     0     0     0  0.0000000000e+00  0.0000000000e+00 -4.0000000000e+02  4.0000000000e+02  0.0000000000e+00 0. 9.
       25     2     1     2     0     0  0.0000000000e+00  0.0000000000e+00  0.0000000000e+00  8.0000000000e+02  8.0000000000e+02 0. 9.
       21     1     3     0   101   102 -1.2069491389e+01  3.4850954322e+02 -1.9594750742e+02  4.0000000000e+02  0.0000000000e+00 0. 9.
       21     1     3     0   102   101  1.2069491389e+01 -3.4850954322e+02  1.9594750742e+02  4.0000000000e+02  0.0000000000e+00 0. 9.
#pdf   11  -11  1.000000e+00  1.000000e+00  8.000000e+02  1.000000e+00  1.000000e+00
</event>
<event>
     5  9999  1.000000e+00  8.000000e+02  8.014810e-03  9.824665e-02
       11    -1     0     0     0     0  0.0000000000e+00  0.0000000000e+00  4.0000000000e+02  4.0000000000e+02  0.0000000000e+00 0. 9.
      -11    -1     0     0     0     0  0.0000000000e+00  0.0000000000e+00 -4.0000000000e+02  4.0000000000e+02  0.0000000000e+00 0. 9.
       25     2     1     2     0     0  0.0000000000e+00  0.0000000000e+00  0.0000000000e+00  8.0000000000e+02  8.0000000000e+02 0. 9.
       21     1     3     0   101   102  2.2383617009e+02  3.2377761070e+02  7.1171818640e+01  4.0000000000e+02  0.0000000000e+00 0. 9.
       21     1     3     0   102   101 -2.2383617009e+02 -3.2377761070e+02 -7.1171818640e+01  4.0000000000e+02  0.0000000000e+00 0. 9.
#pdf   11  -11  1.000000e+00  1.000000e+00  8.000000e+02  1.000000e+00  1.000000e+00
</event>
<event>
     5  9999  1.000000e+00  8.000000e+02  8.014810e-03  9.824665e-02
       11    -1     0     0     0     0  0.0000000000e+00  0.0000000000e+00  4.0000000000e+02  4.0000000000e+02  0.0000000000e+00 0. 9.
      -11    -1     0     0     0     0  0.0000000000e+00  0.0000000000e+00 -4.0000000000e+02  4.0000000000e+02  0.0000000000e+00 0. 9.
       25     2     1     2     0     0  0.0000000000e+00  0.0000000000e+00  0.0000000000e+00  8.0000000000e+02  8.0000000000e+02 0. 9.
       21     1     3     0   101   102  2.1106153277e+02 -1.1958897915e+02  3.1804324462e+02  4.0000000000e+02  0.0000000000e+00 0. 9.
       21     1     3     0   102   101 -2.1106153277e+02  1.1958897915e+02 -3.1804324462e+02  4.0000000000e+02  0.0000000000e+00 0. 9.
#pdf   11  -11  1.000000e+00  1.000000e+00  8.000000e+02  1.000000e+00  1.000000e+00
</event>
<event>
     5  9999  1.000000e+00  8.000000e+02  8.014810e-03  9.824665e-02
       11    -1     0     0     0     0  0.0000000000e+00  0.0000000000e+00  4.0000000000e+02  4.0000000000e+02  0.0000000000e+00 0. 9.
      -11    -1     0     0     0     0  0.0000000000e+00  0.0000000000e+00 -4.0000000000e+02  4.0000000000e+02  0.0000000000e+00 0. 9.
       25     2     1     2     0     0  0.0000000000e+00  0.0000000000e+00  0.0000000000e+00  8.0000000000e+02  8.0000000000e+02 0. 9.
       21     1     3     0   101   102 -2.0986190079e+01  3.0920859422e+02  2.5288263105e+02  4.0000000000e+02  0.0000000000e+00 0. 9.
       21     1     3     0   102   101  2.0986190079e+01 -3.0920859422e+02 -2.5288263105e+02  4.0000000000e+02  0.0000000000e+00 0. 9.
#pdf   11  -11  1.000000e+00  1.000000e+00  8.000000e+02  1.000000e+00  1.000000e+00
</event>
<event>
     5  9999  1.000000e+00  8.000000e+02  8.014810e-03  9.824665e-02
       11    -1     0     0     0     0  0.0000000000e+00  0.0000000000e+00  4.0000000000e+02  4.0000000000e+02  0.0000000000e+00 0. 9.
      -11    -1     0     0     0     0  0.0000000000e+00  0.0000000000e+00 -4.0000000000e+02  4.0000000000e+02  0.0000000000e+00 0. 9.
       25     2     1     2     0     0  0.0000000000e+00  0.0000000000e+00  0.0000000000e+00  8.0000000000e+02  8.0000000000e+02 0. 9.
       21     1     3     0   101   102  3.6319307429e+01  1.9867802596e+02 -3.4526504298e+02  4.0000000000e+02  0.0000000000e+00 0. 9.
       21     1     3     0   102   101 -3.6319307429e+01 -1.9867802596e+02  3.4526504298e+02  4.0000000000e+02  0.0000000000e+00 0. 9.
#pdf   11  -11  1.000000e+00  1.000000e+00  8.000000e+02  1.000000e+00  1.000000e+00
</event>
<event>
     5  9999  1.000000e+00  8.000000e+02  8.014810e-03  9.824665e-02
       11    -1     0     0     0     0  0.0000000000e+00  0.0000000000e+00  4.0000000000e+02  4.0000000000e+02  0.0000000000e+00 0. 9.
      -11    -1     0     0     0     0  0.0000000000e+00  0.0000000000e+00 -4.0000000000e+02  4.0000000000e+02  0.0000000000e+00 0. 9.
       25     2     1     2     0     0  0.0000000000e+00  0.0000000000e+00  0.0000000000e+00  8.0000000000e+02  8.0000000000e+02 0. 9.
       21     1     3     0   101   102 -1.3229457691e+02  3.4682210410e+02  1.4903883061e+02  4.0000000000e+02  0.0000000000e+00 0. 9.
       21     1     3     0   102   101  1.3229457691e+02 -3.4682210410e+02 -1.4903883061e+02  4.0000000000e+02  0.0000000000e+00 0. 9.
#pdf   11  -11  1.000000e+00  1.000000e+00  8.000000e+02  1.000000e+00  1.000000e+00
</event>
<event>
     5  9999  1.000000e+00  8.000000e+02  8.014810e-03  9.824665e-02
       11    -1     0     0     0     0  0.0000000000e+00  0.0000000000e+00  4.0000000000e+02  4.0000000000e+02  0.0000000000e+00 0. 9.
      -11    -1     0     0     0     0  0.0000000000e+00  0.0000000000e+00 -4.0000000000e+02  4.0000000000e+02  0.0000000000e+00 0. 9.
       25     2     1     2     0     0  0.0000000000e+00  0.0000000000e+00  0.0000000000e+00  8.0000000000e+02  8.0000000000e+02 0. 9.
       21     1     3     0   101   102 -5.8001036199e+01  3.8702042706e+02  8.2771183625e+01  4.0000000000e+02  0.0000000000e+00 0. 9.
       21     1     3     0   102   101  5.8001036199e+01 -3.8702042706e+02 -8.2771183625e+01  4.0000000000e+02  0.0000000000e+00 0. 9.
#pdf   11  -11  1.000000e+00  1.000000e+00  8.000000e+02  1.000000e+00  1.000000e+00
</event>
<event>
     5  9999  1.000000e+00  8.000000e+02  8.014810e-03  9.824665e-02
       11    -1     0     0     0     0  0.0000000000e+00  0.0000000000e+00  4.0000000000e+02  4.0000000000e+02  0.0000000000e+00 0. 9.
      -11    -1     0     0     0     0  0.0000000000e+00  0.0000000000e+00 -4.0000000000e+02  4.0000000000e+02  0.0000000000e+00 0. 9.
       25     2     1     2     0     0  0.0000000000e+00  0.0000000000e+00  0.0000000000e+00  8.0000000000e+02  8.0000000000e+02 0. 9.
       21     1     3     0   101   102 -3.4426646286e+02 -1.4654831607e+02 -1.4143618209e+02  4.0000000000e+02  0.0000000000e+00 0. 9.
       21     1     3     0   102   101  3.4426646286e+02  1.4654831607e+02  1.4143618209e+02  4.0000000000e+02  0.0000000000e+00 0. 9.
#pdf   11  -11  1.000000e+00  1.000000e+00  8.000000e+02  1.000000e+00  1.000000e+00
</event>
<event>
     5  9999  1.000000e+00  8.000000e+02  8.014810e-03  9.824665e-02
       11    -1     0     0     0     0  0.0000000000e+00  0.0000000000e+00  4.0000000000e+02  4.0000000000e+02  0.0000000000e+00 0. 9.
      -11    -1     0     0     0     0  0.0000000000e+00  0.0000000000e+00 -4.0000000000e+02  4.0000000000e+02  0.0000000000e+00 0. 9.
       25     2     1     2     0     0  0.0000000000e+00  0.0000000000e+00  0.0000000000e+00  8.0000000000e+02  8.0000000000e+02 0. 9.
       21     1     3     0   101   102  2.0834529518e+02  2.0882663665e+02  2.7015490704e+02  4.0000000000e+02  0.0000000000e+00 0. 9.
       21     1     3     0   102   101 -2.0834529518e+02 -2.0882663665e+02 -2.7015490704e+02  4.0000000000e+02  0.0000000000e+00 0. 9.
#pdf   11  -11  1.000000e+00  1.000000e+00  8.000000e+02  1.000000e+00  1.000000e+00
</event>
<event>
     5  9999  1.000000e+00  8.000000e+02  8.014810e-03  9.824665e-02
       11    -1     0     0     0     0  0.0000000000e+00  0.0000000000e+00  4.0000000000e+02  4.0000000000e+02  0.0000000000e+00 0. 9.
      -11    -1     0     0     0     0  0.0000000000e+00  0.0000000000e+00 -4.0000000000e+02  4.0000000000e+02  0.0000000000e+00 0. 9.
       25     2     1     2     0     0  0.0000000000e+00  0.0000000000e+00  0.0000000000e+00  8.0000000000e+02  8.0000000000e+02 0. 9.
       21     1     3     0   101   102 -8.5512818061e+01 -6.7035529405e+01 -3.8495947286e+02  4.0000000000e+02  0.0000000000e+00 0. 9.
       21     1     3     0   102   101  8.5512818061e+01  6.7035529405e+01  3.8495947286e+02  4.0000000000e+02  0.0000000000e+00 0. 9.
#pdf   11  -11  1.000000e+00  1.000000e+00  8.000000e+02  1.000000e+00  1.000000e+00
</event>
<event>
     5  9999  1.000000e+00  8.000000e+02  8.014810e-03  9.824665e-02
       11    -1     0     0     0     0  0.0000000000e+00  0.0000000000e+00  4.0000000000e+02  4.0000000000e+02  0.0000000000e+00 0. 9.
      -11    -1     0     0     0     0  0.0000000000e+00  0.0000000000e+00 -4.0000000000e+02  4.0000000000e+02  0.0000000000e+00 0. 9.
       25     2     1     2     0     0  0.0000000000e+00  0.0000000000e+00  0.0000000000e+00  8.0000000000e+02  8.0000000000e+02 0. 9.
       21     1     3     0   101   102  3.6298084869e+02  1.6324127987e+02 -3.9964834902e+01  4.0000000000e+02  0.0000000000e+00 0. 9.
       21     1     3     0   102   101 -3.6298084869e+02 -1.6324127987e+02  3.9964834902e+01  4.0000000000e+02  0.0000000000e+00 0. 9.
#pdf   11  -11  1.000000e+00  1.000000e+00  8.000000e+02  1.000000e+00  1.000000e+00
</event>
<event>
     5  9999  1.000000e+00  8.000000e+02  8.014810e-03  9.824665e-02
       11    -1     0     0     0     0  0.0000000000e+00  0.0000000000e+00  4.0000000000e+02  4.0000000000e+02  0.0000000000e+00 0. 9.
      -11    -1     0     0     0     0  0.0000000000e+00  0.0000000000e+00 -4.0000000000e+02  4.0000000000e+02  0.0000000000e+00 0. 9.
       25     2     1     2     0     0  0.0000000000e+00  0.0000000000e+00  0.0000000000e+00  8.0000000000e+02  8.0000000000e+02 0. 9.
       21     1     3     0   101   102 -5.2942512801e+01 -3.0640273245e+02 -2.5162363937e+02  4.0000000000e+02  0.0000000000e+00 0. 9.
       21     1     3     0   102   101  5.2942512801e+01  3.0640273245e+02  2.5162363937e+02  4.0000000000e+02  0.0000000000e+00 0. 9.
#pdf   11  -11  1.000000e+00  1.000000e+00  8.000000e+02  1.000000e+00  1.000000e+00
</event>
<event>
     5  9999  1.000000e+00  8.000000e+02  8.014810e-03  9.824665e-02
       11    -1     0     0     0     0  0.0000000000e+00  0.0000000000e+00  4.0000000000e+02  4.0000000000e+02  0.0000000000e+00 0. 9.
      -11    -1     0     0     0     0  0.0000000000e+00  0.0000000000e+00 -4.0000000000e+02  4.0000000000e+02  0.0000000000e+00 0. 9.
       25     2     1     2     0     0  0.0000000000e+00  0.0000000000e+00  0.0000000000e+00  8.0000000000e+02  8.0000000000e+02 0. 9.
       21     1     3     0   101   102 -1.3488913148e+02 -3.2436428115e+02  1.9129227722e+02  4.0000000000e+02  0.0000000000e+00 0. 9.
       21     1     3     0   102   101  1.3488913148e+02  3.2436428115e+02 -1.9129227722e+02  4.0000000000e+02  0.0000000000e+00 0. 9.
#pdf   11  -11  1.000000e+00  1.000000e+00  8.000000e+02  1.000000e+00  1.000000e+00
</event>
<event>
     5  9999  1.000000e+00  8.000000e+02  8.014810e-03  9.824665e-02
       11    -1     0     0     0     0  0.0000000000e+00  0.0000000000e+00  4.0000000000e+02  4.0000000000e+02  0.0000000000e+00 0. 9.
      -11    -1     0     0     0     0  0.0000000000e+00  0.0000000000e+00 -4.0000000000e+02  4.0000000000e+02  0.0000000000e+00 0. 9.
       25     2     1     2     0     0  0.0000000000e+00  0.0000000000e+00  0.0000000000e+00  8.0000000000e+02  8.0000000000e+02 0. 9.
       21     1     3     0   101   102  1.5583591078e+02 -3.6801847843e+02  1.6660385492e+01  4.0000000000e+02  0.0000000000e+00 0. 9.
       21     1     3     0   102   101 -1.5583591078e+02  3.6801847843e+02 -1.6660385492e+01  4.0000000000e+02  0.0000000000e+00 0. 9.
#pdf   11  -11  1.000000e+00  1.000000e+00  8.000000e+02  1.000000e+00  1.000000e+00
</event>
<event>
     5  9999  1.000000e+00  8.000000e+02  8.014810e-03  9.824665e-02
       11    -1     0     0     0     0  0.0000000000e+00  0.0000000000e+00  4.0000000000e+02  4.0000000000e+02  0.0000000000e+00 0. 9.
      -11    -1     0     0     0     0  0.0000000000e+00  0.0000000000e+00 -4.0000000000e+02  4.0000000000e+02  0.0000000000e+00 0. 9.
       25     2     1     2     0     0  0.0000000000e+00  0.0000000000e+00  0.0000000000e+00  8.0000000000e+02  8.0000000000e+02 0. 9.
       21     1     3     0   101   102 -1.4360690603e+02 -3.4438206557e+02  1.4414593112e+02  4.0000000000e+02  0.0000000000e+00 0. 9.
       21     1     3     0   102   101  1.4360690603e+02  3.4438206557e+02 -1.4414593112e+02  4.0000000000e+02  0.0000000000e+00 0. 9.
#pdf   11  -11  1.000000e+00  1.000000e+00  8.000000e+02  1.000000e+00  1.000000e+00
</event>
<event>
     5  9999  1.000000e+00  8.000000e+02  8.014810e-03  9.824665e-02
       11    -1     0     0     0     0  0.0000000000e+00  0.0000000000e+00  4.0000000000e+02  4.0000000000e+02  0.0000000000e+00 0. 9.
      -11    -1     0     0     0     0  0.0000000000e+00  0.0000000000e+00 -4.0000000000e+02  4.0000000000e+02  0.0000000000e+00 0. 9.
       25     2     1     2     0     0  0.0000000000e+00  0.0000000000e+00  0.0000000000e+00  8.0000000000e+02  8.0000000000e+02 0. 9.
       21     1     3     0   101   102 -3.5980664101e+02 -1.0639509692e+02 -1.3863356173e+02  4.0000000000e+02  0.0000000000e+00 0. 9.
       21     1     3     0   102   101  3.5980664101e+02  1.0639509692e+02  1.3863356173e+02  4.0000000000e+02  0.0000000000e+00 0. 9.
#pdf   11  -11  1.000000e+00  1.000000e+00  8.000000e+02  1.000000e+00  1.000000e+00
</event>
<event>
     5  9999  1.000000e+00  8.000000e+02  8.014810e-03  9.824665e-02
       11    -1     0     0     0     0  0.0000000000e+00  0.0000000000e+00  4.0000000000e+02  4.0000000000e+02  0.0000000000e+00 0. 9.
      -11    -1     0     0     0     0  0.0000000000e+00  0.0000000000e+00 -4.0000000000e+02  4.0000000000e+02  0.0000000000e+00 0. 9.
       25     2     1     2     0     0  0.0000000000e+00  0.0000000000e+00  0.0000000000e+00  8.0000000000e+02  8.0000000000e+02 0. 9.
       21     1     3     0   101   102  3.7499113961e+02  1.1403397958e+02  7.9861734969e+01  4.0000000000e+02  0.0000000000e+00 0. 9.
       21     1     3     0   102   101 -3.7499113961e+02 -1.1403397958e+02 -7.9861734969e+01  4.0000000000e+02  0.0000000000e+00 0. 9.
#pdf   11  -11  1.000000e+00  1.000000e+00  8.000000e+02  1.000000e+00  1.000000e+00
</event>
<event>
     5  9999  1.000000e+00  8.000000e+02  8.014810e-03  9.824665e-02
       11    -1     0     0     0     0  0.0000000000e+00  0.0000000000e+00  4.0000000000e+02  4.0000000000e+02  0.0000000000e+00 0. 9.
      -11    -1     0     0     0     0  0.0000000000e+00  0.0000000000e+00 -4.0000000000e+02  4.0000000000e+02  0.0000000000e+00 0. 9.
       25     2     1     2     0     0  0.0000000000e+00  0.0000000000e+00  0.0000000000e+00  8.0000000000e+02  8.0000000000e+02 0. 9.
       21     1     3     0   101   102 -1.4496023176e+02 -3.6610259577e+02  7.0394748234e+01  4.0000000000e+02  0.0000000000e+00 0. 9.
       21     1     3     0   102   101  1.4496023176e+02  3.6610259577e+02 -7.0394748234e+01  4.0000000000e+02  0.0000000000e+00 0. 9.
#pdf   11  -11  1.000000e+00  1.000000e+00  8.000000e+02  1.000000e+00  1.000000e+00
</event>
<event>
     5  9999  1.000000e+00  8.000000e+02  8.014810e-03  9.824665e-02
       11    -1     0     0     0     0  0.0000000000e+00  0.0000000000e+00  4.0000000000e+02  4.0000000000e+02  0.0000000000e+00 0. 9.
      -11    -1     0     0     0     0  0.0000000000e+00  0.0000000000e+00 -4.0000000000e+02  4.0000000000e+02  0.0000000000e+00 0. 9.
       25     2     1     2     0     0  0.0000000000e+00  0.0000000000e+00  0.0000000000e+00  8.0000000000e+02  8.0000000000e+02 0. 9.
       21     1     3     0   101   102 -3.3769218276e+01 -1.7735957101e+02  3.5693588005e+02  4.0000000000e+02  0.0000000000e+00 0. 9.
       21     1     3     0   102   101  3.3769218276e+01  1.7735957101e+02 -3.5693588005e+02  4.0000000000e+02  0.0000000000e+00 0. 9.
#pdf   11  -11  1.000000e+00  1.000000e+00  8.000000e+02  1.000000e+00  1.000000e+00
</event>
<event>
     5  9999  1.000000e+00  8.000000e+02  8.014810e-03  9.824665e-02
       11    -1     0     0     0     0  0.0000000000e+00  0.0000000000e+00  4.0000000000e+02  4.0000000000e+02  0.0000000000e+00 0. 9.
      -11    -1     0     0     0     0  0.0000000000e+00  0.0000000000e+00 -4.0000000000e+02  4.0000000000e+02  0.0000000000e+00 0. 9.
       25     2     1     2     0     0  0.0000000000e+00  0.0000000000e+00  0.0000000000e+00  8.0000000000e+02  8.0000000000e+02 0. 9.
       21     1     3     0   101   102  3.9606926927e+02 -5.4259500244e+01  1.3602961787e+01  4.0000000000e+02  0.0000000000e+00 0. 9.
       21     1     3     0   102   101 -3.9606926927e+02  5.4259500244e+01 -1.3602961787e+01  4.0000000000e+02  0.0000000000e+00 0. 9.
#pdf   11  -11  1.000000e+00  1.000000e+00  8.000000e+02  1.000000e+00  1.000000e+00
</event>
<event>
     5  9999  1.000000e+00  8.000000e+02  8.014810e-03  9.824665e-02
       11    -1     0     0     0     0  0.0000000000e+00  0.0000000000e+00  4.0000000000e+02  4.0000000000e+02  0.0000000000e+00 0. 9.
      -11    -1     0     0     0     0  0.0000000000e+00  0.0000000000e+00 -4.0000000000e+02  4.0000000000e+02  0.0000000000e+00 0. 9.
       25     2     1     2     0     0  0.0000000000e+00  0.0000000000e+00  0.0000000000e+00  8.0000000000e+02  8.0000000000e+02 0. 9.
       21     1     3     0   101   102  3.7027333300e+02  1.4712668817e+02  3.5375082974e+01  4.0000000000e+02  0.0000000000e+00 0. 9.
       21     1     3     0   102   101 -3.7027333300e+02 -1.4712668817e+02 -3.5375082974e+01  4.0000000000e+02  0.0000000000e+00 0. 9.
#pdf   11  -11  1.000000e+00  1.000000e+00  8.000000e+02  1.000000e+00  1.000000e+00
</event>
<event>
     5  9999  1.000000e+00  8.000000e+02  8.014810e-03  9.824665e-02
       11    -1     0     0     0     0  0.0000000000e+00  0.0000000000e+00  4.0000000000e+02  4.0000000000e+02  0.0000000000e+00 0. 9.
      -11    -1     0     0     0     0  0.0000000000e+00  0.0000000000e+00 -4.0000000000e+02  4.0000000000e+02  0.0000000000e+00 0. 9.
       25     2     1     2     0     0  0.0000000000e+00  0.0000000000e+00  0.0000000000e+00  8.0000000000e+02  8.0000000000e+02 0. 9.
       21     1     3     0   101   102  3.0579742335e+02 -1.7298363637e+02  1.9121871619e+02  4.0000000000e+02  0.0000000000e+00 0. 9.
       21     1     3     0   102   101 -3.0579742335e+02  1.7298363637e+02 -1.9121871619e+02  4.0000000000e+02  0.0000000000e+00 0. 9.
#pdf   11  -11  1.000000e+00  1.000000e+00  8.000000e+02  1.000000e+00  1.000000e+00
</event>
<event>
     5  9999  1.000000e+00  8.000000e+02  8.014810e-03  9.824665e-02
       11    -1     0     0     0     0  0.0000000000e+00  0.0000000000e+00  4.0000000000e+02  4.0000000000e+02  0.0000000000e+00 0. 9.
      -11    -1     0     0     0     0  0.0000000000e+00  0.0000000000e+00 -4.0000000000e+02  4.0000000000e+02  0.0000000000e+00 0. 9.
       25     2     1     2     0     0  0.0000000000e+00  0.0000000000e+00  0.0000000000e+00  8.0000000000e+02  8.0000000000e+02 0. 9.
       21     1     3     0   101   102  1.6309818185e+02 -5.9129352259e+01 -3.6042017532e+02  4.0000000000e+02  0.0000000000e+00 0. 9.
       21     1     3     0   102   101 -1.6309818185e+02  5.9129352259e+01  3.6042017532e+02  4.0000000000e+02  0.0000000000e+00 0. 9.
#pdf   11  -11  1.000000e+00  1.000000e+00  8.000000e+02  1.000000e+00  1.000000e+00
</event>
<event>
     5  9999  1.000000e+00  8.000000e+02  8.014810e-03  9.824665e-02
       11    -1     0     0     0     0  0.0000000000e+00  0.0000000000e+00  4.0000000000e+02  4.0000000000e+02  0.0000000000e+00 0. 9.
      -11    -1     0     0     0     0  0.0000000000e+00  0.0000000000e+00 -4.0000000000e+02  4.0000000000e+02  0.0000000000e+00 0. 9.
       25     2     1     2     0     0  0.0000000000e+00  0.0000000000e+00  0.0000000000e+00  8.0000000000e+02  8.0000000000e+02 0. 9.
       21     1     3     0   101   102  2.8826014185e+02  2.5576407224e+02  1.0719528896e+02  4.0000000000e+02  0.0000000000e+00 0. 9.
       21     1     3     0   102   101 -2.8826014185e+02 -2.5576407224e+02 -1.0719528896e+02  4.0000000000e+02  0.0000000000e+00 0. 9.
#pdf   11  -11  1.000000e+00  1.000000e+00  8.000000e+02  1.000000e+00  1.000000e+00
</event>
<event>
     5  9999  1.000000e+00  8.000000e+02  8.014810e-03  9.824665e-02
       11    -1     0     0     0     0  0.0000000000e+00  0.0000000000e+00  4.0000000000e+02  4.0000000000e+02  0.0000000000e+00 0. 9.
      -11    -1     0     0     0     0  0.0000000000e+00  0.0000000000e+00 -4.0000000000e+02  4.0000000000e+02  0.0000000000e+00 0. 9.
       25     2     1     2     0     0  0.0000000000e+00  0.0000000000e+00  0.0000000000e+00  8.0000000000e+02  8.0000000000e+02 0. 9.
       21     1     3     0   101   102  3.3935149852e+02  5.9978106558e+01  2.0308418744e+02  4.0000000000e+02  0.0000000000e+00 0. 9.
       21     1     3     0   102   101 -3.3935149852e+02 -5.9978106558e+01 -2.0308418744e+02  4.0000000000e+02  0.0000000000e+00 0. 9.
#pdf   11  -11  1.000000e+00  1.000000e+00  8.000000e+02  1.000000e+00  1.000000e+00
</event>
<event>
     5  9999  1.000000e+00  8.000000e+02  8.014810e-03  9.824665e-02
       11    -1     0     0     0     0  0.0000000000e+00  0.0000000000e+00  4.0000000000e+02  4.0000000000e+02  0.0000000000e+00 0. 9.
      -11    -1     0     0     0     0  0.0000000000e+00  0.0000000000e+00 -4.0000000000e+02  4.0000000000e+02  0.0000000000e+00 0. 9.
       25     2     1     2     0     0  0.0000000000e+00  0.0000000000e+00  0.0000000000e+00  8.0000000000e+02  8.0000000000e+02 0. 9.
       21     1     3     0   101   102  1.1453467660e+02 -2.5782743528e+02  2.8356096606e+02  4.0000000000e+02  0.0000000000e+00 0. 9.
       21     1     3     0   102   101 -1.1453467660e+02  2.5782743528e+02 -2.8356096606e+02  4.0000000000e+02  0.0000000000e+00 0. 9.
#pdf   11  -11  1.000000e+00  1.000000e+00  8.000000e+02  1.000000e+00  1.000000e+00
</event>
<event>
     5  9999  1.000000e+00  8.000000e+02  8.014810e-03  9.824665e-02
       11    -1     0     0     0     0  0.0000000000e+00  0.0000000000e+00  4.0000000000e+02  4.0000000000e+02  0.0000000000e+00 0. 9.
      -11    -1     0     0     0     0  0.0000000000e+00  0.0000000000e+00 -4.0000000000e+02  4.0000000000e+02  0.0000000000e+00 0. 9.
       25     2     1     2     0     0  0.0000000000e+00  0.0000000000e+00  0.0000000000e+00  8.0000000000e+02  8.0000000000e+02 0. 9.
       21     1     3     0   101   102 -6.6106751972e+01 -1.1626796799e+02  3.7697699792e+02  4.0000000000e+02  0.0000000000e+00 0. 9.
       21     1     3     0   102   101  6.6106751972e+01  1.1626796799e+02 -3.7697699792e+02  4.0000000000e+02  0.0000000000e+00 0. 9.
#pdf   11  -11  1.000000e+00  1.000000e+00  8.000000e+02  1.000000e+00  1.000000e+00
</event>
<event>
     5  9999  1.000000e+00  8.000000e+02  8.014810e-03  9.824665e-02
       11    -1     0     0     0     0  0.0000000000e+00  0.0000000000e+00  4.0000000000e+02  4.0000000000e+02  0.0000000000e+00 0. 9.
      -11    -1     0     0     0     0  0.0000000000e+00  0.0000000000e+00 -4.0000000000e+02  4.0000000000e+02  0.0000000000e+00 0. 9.
       25     2     1     2     0     0  0.0000000000e+00  0.0000000000e+00  0.0000000000e+00  8.0000000000e+02  8.0000000000e+02 0. 9.
       21     1     3     0   101   102  3.5829798495e+01  2.0284297007e+02 -3.4288621295e+02  4.0000000000e+02  0.0000000000e+00 0. 9.
       21     1     3     0   102   101 -3.5829798495e+01 -2.0284297007e+02  3.4288621295e+02  4.0000000000e+02  0.0000000000e+00 0. 9.
#pdf   11  -11  1.000000e+00  1.000000e+00  8.000000e+02  1.000000e+00  1.000000e+00
</event>
<event>
     5  9999  1.000000e+00  8.000000e+02  8.014810e-03  9.824665e-02
       11    -1     0     0     0     0  0.0000000000e+00  0.0000000000e+00  4.0000000000e+02  4.0000000000e+02  0.0000000000e+00 0. 9.
      -11    -1     0     0     0     0  0.0000000000e+00  0.0000000000e+00 -4.0000000000e+02  4.0000000000e+02  0.0000000000e+00 0. 9.
       25     2     1     2     0     0  0.0000000000e+00  0.0000000000e+00  0.0000000000e+00  8.0000000000e+02  8.0000000000e+02 0. 9.
       21     1     3     0   101   102 -2.2180088870e+02 -2.0707012415e+02  2.6062680111e+02  4.0000000000e+02  0.0000000000e+00 0. 9.
       21     1     3     0   102   101  2.2180088870e+02  2.0707012415e+02 -2.6062680111e+02  4.0000000000e+02  0.0000000000e+00 0. 9.
#pdf   11  -11  1.000000e+00  1.000000e+00  8.000000e+02  1.000000e+00  1.000000e+00
</event>
<event>
     5  9999  1.000000e+00  8.000000e+02  8.014810e-03  9.824665e-02
       11    -1     0     0     0     0  0.0000000000e+00  0.0000000000e+00  4.0000000000e+02  4.0000000000e+02  0.0000000000e+00 0. 9.
      -11    -1     0     0     0     0  0.0000000000e+00  0.0000000000e+00 -4.0000000000e+02  4.0000000000e+02  0.0000000000e+00 0. 9.
       25     2     1     2     0     0  0.0000000000e+00  0.0000000000e+00  0.0000000000e+00  8.0000000000e+02  8.0000000000e+02 0. 9.
       21     1     3     0   101   102 -9.7303245992e+01  2.6449933454e+02  2.8385239183e+02  4.0000000000e+02  0.0000000000e+00 0. 9.
       21     1     3     0   102   101  9.7303245992e+01 -2.6449933454e+02 -2.8385239183e+02  4.0000000000e+02  0.0000000000e+00 0. 9.
#pdf   11  -11  1.000000e+00  1.000000e+00  8.000000e+02  1.000000e+00  1.000000e+00
</event>
<event>
     5  9999  1.000000e+00  8.000000e+02  8.014810e-03  9.824665e-02
       11    -1     0     0     0     0  0.0000000000e+00  0.0000000000e+00  4.0000000000e+02  4.0000000000e+02  0.0000000000e+00 0. 9.
      -11    -1     0     0     0     0  0.0000000000e+00  0.0000000000e+00 -4.0000000000e+02  4.0000000000e+02  0.0000000000e+00 0. 9.
       25     2     1     2     0     0  0.0000000000e+00  0.0000000000e+00  0.0000000000e+00  8.0000000000e+02  8.0000000000e+02 0. 9.
       21     1     3     0   101   102 -3.6366402962e+02 -4.0415810578e+01  1.6160147221e+02  4.0000000000e+02  0.0000000000e+00 0. 9.
       21     1     3     0   102   101  3.6366402962e+02  4.0415810578e+01 -1.6160147221e+02  4.0000000000e+02  0.0000000000e+00 0. 9.
#pdf   11  -11  1.000000e+00  1.000000e+00  8.000000e+02  1.000000e+00  1.000000e+00
</event>
<event>
     5  9999  1.000000e+00  8.000000e+02  8.014810e-03  9.824665e-02
       11    -1     0     0     0     0  0.0000000000e+00  0.0000000000e+00  4.0000000000e+02  4.0000000000e+02  0.0000000000e+00 0. 9.
      -11    -1     0     0     0     0  0.0000000000e+00  0.0000000000e+00 -4.0000000000e+02  4.0000000000e+02  0.0000000000e+00 0. 9.
       25     2     1     2     0     0  0.0000000000e+00  0.0000000000e+00  0.0000000000e+00  8.0000000000e+02  8.0000000000e+02 0. 9.
       21     1     3     0   101   102  3.4784879037e+02  1.2145305900e+02 -1.5572531425e+02  4.0000000000e+02  0.0000000000e+00 0. 9.
       21     1     3     0   102   101 -3.4784879037e+02 -1.2145305900e+02  1.5572531425e+02  4.0000000000e+02  0.0000000000e+00 0. 9.
#pdf   11  -11  1.000000e+00  1.000000e+00  8.000000e+02  1.000000e+00  1.000000e+00
</event>
<event>
     5  9999  1.000000e+00  8.000000e+02  8.014810e-03  9.824665e-02
       11    -1     0     0     0     0  0.0000000000e+00  0.0000000000e+00  4.0000000000e+02  4.0000000000e+02  0.0000000000e+00 0. 9.
      -11    -1     0     0     0     0  0.0000000000e+00  0.0000000000e+00 -4.0000000000e+02  4.0000000000e+02  0.0000000000e+00 0. 9.
       25     2     1     2     0     0  0.0000000000e+00  0.0000000000e+00  0.0000000000e+00  8.0000000000e+02  8.0000000000e+02 0. 9.
       21     1     3     0   101   102 -3.3313162504e+02  8.5922295112e+01 -2.0406048026e+02  4.0000000000e+02  0.0000000000e+00 0. 9.
       21     1     3     0   102   101  3.3313162504e+02 -8.5922295112e+01  2.0406048026e+02  4.0000000000e+02  0.0000000000e+00 0. 9.
#pdf   11  -11  1.000000e+00  1.000000e+00  8.000000e+02  1.000000e+00  1.000000e+00
</event>
<event>
     5  9999  1.000000e+00  8.000000e+02  8.014810e-03  9.824665e-02
       11    -1     0     0     0     0  0.0000000000e+00  0.0000000000e+00  4.0000000000e+02  4.0000000000e+02  0.0000000000e+00 0. 9.
      -11    -1     0     0     0     0  0.0000000000e+00  0.0000000000e+00 -4.0000000000e+02  4.0000000000e+02  0.0000000000e+00 0. 9.
       25     2     1     2     0     0  0.0000000000e+00  0.0000000000e+00  0.0000000000e+00  8.0000000000e+02  8.0000000000e+02 0. 9.
       21     1     3     0   101   102 -3.2373669050e+02  1.1605957844e+02  2.0426631998e+02  4.0000000000e+02  0.0000000000e+00 0. 9.
       21     1     3     0   102   101  3.2373669050e+02 -1.1605957844e+02 -2.0426631998e+02  4.0000000000e+02  0.0000000000e+00 0. 9.
#pdf   11  -11  1.000000e+00  1.000000e+00  8.000000e+02  1.000000e+00  1.000000e+00
</event>
<event>
     5  9999  1.000000e+00  8.000000e+02  8.014810e-03  9.824665e-02
       11    -1     0     0     0     0  0.0000000000e+00  0.0000000000e+00  4.0000000000e+02  4.0000000000e+02  0.0000000000e+00 0. 9.
      -11    -1     0     0     0     0  0.0000000000e+00  0.0000000000e+00 -4.0000000000e+02  4.0000000000e+02  0.0000000000e+00 0. 9.
       25     2     1     2     0     0  0.0000000000e+00  0.0000000000e+00  0.0000000000e+00  8.0000000000e+02  8.0000000000e+02 0. 9.
       21     1     3     0   101   102 -7.5603505665e+01  3.7258078088e+02 -1.2436909442e+02  4.0000000000e+02  0.0000000000e+00 0. 9.
       21     1     3     0   102   101  7.5603505665e+01 -3.7258078088e+02  1.2436909442e+02  4.0000000000e+02  0.0000000000e+00 0. 9.
#pdf   11  -11  1.000000e+00  1.000000e+00  8.000000e+02  1.000000e+00  1.000000e+00
</event>
<event>
     5  9999  1.000000e+00  8.000000e+02  8.014810e-03  9.824665e-02
       11    -1     0     0     0     0  0.0000000000e+00  0.0000000000e+00  4.0000000000e+02  4.0000000000e+02  0.0000000000e+00 0. 9.
      -11    -1     0     0     0     0  0.0000000000e+00  0.0000000000e+00 -4.0000000000e+02  4.0000000000e+02  0.0000000000e+00 0. 9.
       25     2     1     2     0     0  0.0000000000e+00  0.0000000000e+00  0.0000000000e+00  8.0000000000e+02  8.0000000000e+02 0. 9.
       21     1     3     0   101   102 -2.6354104777e+01  3.5121847876e+02 -1.8960759832e+02  4.0000000000e+02  0.0000000000e+00 0. 9.
       21     1     3     0   102   101  2.6354104777e+01 -3.5121847876e+02  1.8960759832e+02  4.0000000000e+02  0.0000000000e+00 0. 9.
#pdf   11  -11  1.000000e+00  1.000000e+00  8.000000e+02  1.000000e+00  1.000000e+00
</event>
<event>
     5  9999  1.000000e+00  8.000000e+02  8.014810e-03  9.824665e-02
       11    -1     0     0     0     0  0.0000000000e+00  0.0000000000e+00  4.0000000000e+02  4.0000000000e+02  0.0000000000e+00 0. 9.
      -11    -1     0     0     0     0  0.0000000000e+00  0.0000000000e+00 -4.0000000000e+02  4.0000000000e+02  0.0000000000e+00 0. 9.
       25     2     1     2     0     0  0.0000000000e+00  0.0000000000e+00  0.0000000000e+00  8.0000000000e+02  8.0000000000e+02 0. 9.
       21     1     3     0   101   102 -3.9642267187e+02 -4.5253851625e+01  2.8304666347e+01  4.0000000000e+02  0.0000000000e+00 0. 9.
       21     1     3     0   102   101  3.9642267187e+02  4.5253851625e+01 -2.8304666347e+01  4.0000000000e+02  0.0000000000e+00 0. 9.
#pdf   11  -11  1.000000e+00  1.000000e+00  8.000000e+02  1.000000e+00  1.000000e+00
</event>
<event>
     5  9999  1.000000e+00  8.000000e+02  8.014810e-03  9.824665e-02
       11    -1     0     0     0     0  0.0000000000e+00  0.0000000000e+00  4.0000000000e+02  4.0000000000e+02  0.0000000000e+00 0. 9.
      -11    -1     0     0     0     0  0.0000000000e+00  0.0000000000e+00 -4.0000000000e+02  4.0000000000e+02  0.0000000000e+00 0. 9.
       25     2     1     2     0     0  0.0000000000e+00  0.0000000000e+00  0.0000000000e+00  8.0000000000e+02  8.0000000000e+02 0. 9.
       21     1     3     0   101   102  2.8202094836e+02  1.1148892080e+02  2.6083405688e+02  4.0000000000e+02  0.0000000000e+00 0. 9.
       21     1     3     0   102   101 -2.8202094836e+02 -1.1148892080e+02 -2.6083405688e+02  4.0000000000e+02  0.0000000000e+00 0. 9.
#pdf   11  -11  1.000000e+00  1.000000e+00  8.000000e+02  1.000000e+00  1.000000e+00
</event>
<event>
     5  9999  1.000000e+00  8.000000e+02  8.014810e-03  9.824665e-02
       11    -1     0     0     0     0  0.0000000000e+00  0.0000000000e+00  4.0000000000e+02  4.0000000000e+02  0.0000000000e+00 0. 9.
      -11    -1     0     0     0     0  0.0000000000e+00  0.0000000000e+00 -4.0000000000e+02  4.0000000000e+02  0.0000000000e+00 0. 9.
       25     2     1     2     0     0  0.0000000000e+00  0.0000000000e+00  0.0000000000e+00  8.0000000000e+02  8.0000000000e+02 0. 9.
       21     1     3     0   101   102 -2.2075071172e+02 -2.2142646488e+02  2.4947834361e+02  4.0000000000e+02  0.0000000000e+00 0. 9.
       21     1     3     0   102   101  2.2075071172e+02  2.2142646488e+02 -2.4947834361e+02  4.0000000000e+02  0.0000000000e+00 0. 9.
#pdf   11  -11  1.000000e+00  1.000000e+00  8.000000e+02  1.000000e+00  1.000000e+00
</event>
<event>
     5  9999  1.000000e+00  8.000000e+02  8.014810e-03  9.824665e-02
       11    -1     0     0     0     0  0.0000000000e+00  0.0000000000e+00  4.0000000000e+02  4.0000000000e+02  0.0000000000e+00 0. 9.
      -11    -1     0     0     0     0  0.0000000000e+00  0.0000000000e+00 -4.0000000000e+02  4.0000000000e+02  0.0000000000e+00 0. 9.
       25     2     1     2     0     0  0.0000000000e+00  0.0000000000e+00  0.0000000000e+00  8.0000000000e+02  8.0000000000e+02 0. 9.
       21     1     3     0   101   102  2.5024562817e+01  3.9892207966e+02 -1.5327935859e+01  4.0000000000e+02  0.0000000000e+00 0. 9.
       21     1     3     0   102   101 -2.5024562817e+01 -3.9892207966e+02  1.5327935859e+01  4.0000000000e+02  0.0000000000e+00 0. 9.
#pdf   11  -11  1.000000e+00  1.000000e+00  8.000000e+02  1.000000e+00  1.000000e+00
</event>
<event>
     5  9999  1.000000e+00  8.000000e+02  8.014810e-03  9.824665e-02
       11    -1     0     0     0     0  0.0000000000e+00  0.0000000000e+00  4.0000000000e+02  4.0000000000e+02  0.0000000000e+00 0. 9.
      -11    -1     0     0     0     0  0.0000000000e+00  0.0000000000e+00 -4.0000000000e+02  4.0000000000e+02  0.0000000000e+00 0. 9.
       25     2     1     2     0     0  0.0000000000e+00  0.0000000000e+00  0.0000000000e+00  8.0000000000e+02  8.0000000000e+02 0. 9.
       21     1     3     0   101   102 -1.7217934117e+02 -1.3252872145e+02 -3.3584283894e+02  4.0000000000e+02  0.0000000000e+00 0. 9.
       21     1     3     0   102   101  1.7217934117e+02  1.3252872145e+02  3.3584283894e+02  4.0000000000e+02  0.0000000000e+00 0. 9.
#pdf   11  -11  1.000000e+00  1.000000e+00  8.000000e+02  1.000000e+00  1.000000e+00
</event>
<event>
     5  9999  1.000000e+00  8.000000e+02  8.014810e-03  9.824665e-02
       11    -1     0     0     0     0  0.0000000000e+00  0.0000000000e+00  4.0000000000e+02  4.0000000000e+02  0.0000000000e+00 0. 9.
      -11    -1     0     0     0     0  0.0000000000e+00  0.0000000000e+00 -4.0000000000e+02  4.0000000000e+02  0.0000000000e+00 0. 9.
       25     2     1     2     0     0  0.0000000000e+00  0.0000000000e+00  0.0000000000e+00  8.0000000000e+02  8.0000000000e+02 0. 9.
       21     1     3     0   101   102 -3.5775603647e+02 -1.7852900506e+01 -1.7802216804e+02  4.0000000000e+02  0.0000000000e+00 0. 9.
       21     1     3     0   102   101  3.5775603647e+02  1.7852900506e+01  1.7802216804e+02  4.0000000000e+02  0.0000000000e+00 0. 9.
#pdf   11  -11  1.000000e+00  1.000000e+00  8.000000e+02  1.000000e+00  1.000000e+00
</event>
<event>
     5  9999  1.000000e+00  8.000000e+02  8.014810e-03  9.824665e-02
       11    -1     0     0     0     0  0.0000000000e+00  0.0000000000e+00  4.0000000000e+02  4.0000000000e+02  0.0000000000e+00 0. 9.
      -11    -1     0     0     0     0  0.0000000000e+00  0.0000000000e+00 -4.0000000000e+02  4.0000000000e+02  0.0000000000e+00 0. 9.
       25     2     1     2     0     0  0.0000000000e+00  0.0000000000e+00  0.0000000000e+00  8.0000000000e+02  8.0000000000e+02 0. 9.
       21     1     3     0   101   102 -1.7385566657e+02 -2.8102375621e+02 -2.2538823316e+02  4.0000000000e+02  0.0000000000e+00 0. 9.
       21     1     3     0   102   101  1.7385566657e+02  2.8102375621e+02  2.2538823316e+02  4.0000000000e+02  0.0000000000e+00 0. 9.
#pdf   11  -11  1.000000e+00  1.000000e+00  8.000000e+02  1.000000e+00  1.000000e+00
</event>
<event>
     5  9999  1.000000e+00  8.000000e+02  8.014810e-03  9.824665e-02
       11    -1     0     0     0     0  0.0000000000e+00  0.0000000000e+00  4.0000000000e+02  4.0000000000e+02  0.0000000000e+00 0. 9.
      -11    -1     0     0     0     0  0.0000000000e+00  0.0000000000e+00 -4.0000000000e+02  4.0000000000e+02  0.0000000000e+00 0. 9.
       25     2     1     2     0     0  0.0000000000e+00  0.0000000000e+00  0.0000000000e+00  8.0000000000e+02  8.0000000000e+02 0. 9.
       21     1     3     0   101   102 -1.3631272582e+02 -1.2880833438e+02  3.5330900607e+02  4.0000000000e+02  0.0000000000e+00 0. 9.
       21     1     3     0   102   101  1.3631272582e+02  1.2880833438e+02 -3.5330900607e+02  4.0000000000e+02  0.0000000000e+00 0. 9.
#pdf   11  -11  1.000000e+00  1.000000e+00  8.000000e+02  1.000000e+00  1.000000e+00
</event>
<event>
     5  9999  1.000000e+00  8.000000e+02  8.014810e-03  9.824665e-02
       11    -1     0     0     0     0  0.0000000000e+00  0.0000000000e+00  4.0000000000e+02  4.0000000000e+02  0.0000000000e+00 0. 9.
      -11    -1     0     0     0     0  0.0000000000e+00  0.0000000000e+00 -4.0000000000e+02  4.0000000000e+02  0.0000000000e+00 0. 9.
       25     2     1     2     0     0  0.0000000000e+00  0.0000000000e+00  0.0000000000e+00  8.0000000000e+02  8.0000000000e+02 0. 9.
       21     1     3     0   101   102 -8.5813742538e+01 -2.7759243522e+02  2.7491533515e+02  4.0000000000e+02  0.0000000000e+00 0. 9.
       21     1     3     0   102   101  8.5813742538e+01  2.7759243522e+02 -2.7491533515e+02  4.0000000000e+02  0.0000000000e+00 0. 9.
#pdf   11  -11  1.000000e+00  1.000000e+00  8.000000e+02  1.000000e+00  1.000000e+00
</event>
<event>
     5  9999  1.000000e+00  8.000000e+02  8.014810e-03  9.824665e-02
       11    -1     0     0     0     0  0.0000000000e+00  0.0000000000e+00  4.0000000000e+02  4.0000000000e+02  0.0000000000e+00 0. 9.
      -11    -1     0     0     0     0  0.0000000000e+00  0.0000000000e+00 -4.0000000000e+02  4.0000000000e+02  0.0000000000e+00 0. 9.
       25     2     1     2     0     0  0.0000000000e+00  0.0000000000e+00  0.0000000000e+00  8.0000000000e+02  8.0000000000e+02 0. 9.
       21     1     3     0   101   102 -1.1158686725e+02 -3.6773158213e+02  1.1100384931e+02  4.0000000000e+02  0.0000000000e+00 0. 9.
       21     1     3     0   102   101  1.1158686725e+02  3.6773158213e+02 -1.1100384931e+02  4.0000000000e+02  0.0000000000e+00 0. 9.
#pdf   11  -11  1.000000e+00  1.000000e+00  8.000000e+02  1.000000e+00  1.000000e+00
</event>
<event>
     5  9999  1.000000e+00  8.000000e+02  8.014810e-03  9.824665e-02
       11    -1     0     0     0     0  0.0000000000e+00  0.0000000000e+00  4.0000000000e+02  4.0000000000e+02  0.0000000000e+00 0. 9.
      -11    -1     0     0     0     0  0.0000000000e+00  0.0000000000e+00 -4.0000000000e+02  4.0000000000e+02  0.0000000000e+00 0. 9.
       25     2     1     2     0     0  0.0000000000e+00  0.0000000000e+00  0.0000000000e+00  8.0000000000e+02  8.0000000000e+02 0. 9.
       21     1     3     0   101   102  1.0036314342e+02  3.6449171606e+02 -1.3066379899e+02  4.0000000000e+02  0.0000000000e+00 0. 9.
       21     1     3     0   102   101 -1.0036314342e+02 -3.6449171606e+02  1.3066379899e+02  4.0000000000e+02  0.0000000000e+00 0. 9.
#pdf   11  -11  1.000000e+00  1.000000e+00  8.000000e+02  1.000000e+00  1.000000e+00
</event>
<event>
     5  9999  1.000000e+00  8.000000e+02  8.014810e-03  9.824665e-02
       11    -1     0     0     0     0  0.0000000000e+00  0.0000000000e+00  4.0000000000e+02  4.0000000000e+02  0.0000000000e+00 0. 9.
      -11    -1     0     0     0     0  0.0000000000e+00  0.0000000000e+00 -4.0000000000e+02  4.0000000000e+02  0.0000000000e+00 0. 9.
       25     2     1     2     0     0  0.0000000000e+00  0.0000000000e+00  0.0000000000e+00  8.0000000000e+02  8.0000000000e+02 0. 9.
       21     1     3     0   101   102  1.4192833794e+02 -2.9997158755e+02  2.2332351768e+02  4.0000000000e+02  0.0000000000e+00 0. 9.
       21     1     3     0   102   101 -1.4192833794e+02  2.9997158755e+02 -2.2332351768e+02  4.0000000000e+02  0.0000000000e+00 0. 9.
#pdf   11  -11  1.000000e+00  1.000000e+00  8.000000e+02  1.000000e+00  1.000000e+00
</event>
<event>
     5  9999  1.000000e+00  8.000000e+02  8.014810e-03  9.824665e-02
       11    -1     0     0     0     0  0.0000000000e+00  0.0000000000e+00  4.0000000000e+02  4.0000000000e+02  0.0000000000e+00 0. 9.
      -11    -1     0     0     0     0  0.0000000000e+00  0.0000000000e+00 -4.0000000000e+02  4.0000000000e+02  0.0000000000e+00 0. 9.
       25     2     1     2     0     0  0.0000000000e+00  0.0000000000e+00  0.0000000000e+00  8.0000000000e+02  8.0000000000e+02 0. 9.
       21     1     3     0   101   102 -3.7341453373e+02  9.3810553000e+01 -1.0844891029e+02  4.0000000000e+02  0.0000000000e+00 0. 9.
       21     1     3     0   102   101  3.7341453373e+02 -9.3810553000e+01  1.0844891029e+02  4.0000000000e+02  0.0000000000e+00 0. 9.
#pdf   11  -11  1.000000e+00  1.000000e+00  8.000000e+02  1.000000e+00  1.000000e+00
</event>
<event>
     5  9999  1.000000e+00  8.000000e+02  8.014810e-03  9.824665e-02
       11    -1     0     0     0     0  0.0000000000e+00  0.0000000000e+00  4.0000000000e+02  4.0000000000e+02  0.0000000000e+00 0. 9.
      -11    -1     0     0     0     0  0.0000000000e+00  0.0000000000e+00 -4.0000000000e+02  4.0000000000e+02  0.0000000000e+00 0. 9.
       25     2     1     2     0     0  0.0000000000e+00  0.0000000000e+00  0.0000000000e+00  8.0000000000e+02  8.0000000000e+02 0. 9.
       21     1     3     0   101   102  1.3005248391e+02 -2.4141217203e+02  2.9121558101e+02  4.0000000000e+02  0.0000000000e+00 0. 9.
       21     1     3     0   102   101 -1.3005248391e+02  2.4141217203e+02 -2.9121558101e+02  4.0000000000e+02  0.0000000000e+00 0. 9.
#pdf   11  -11  1.000000e+00  1.000000e+00  8.000000e+02  1.000000e+00  1.000000e+00
</event>
<event>
     5  9999  1.000000e+00  8.000000e+02  8.014810e-03  9.824665e-02
       11    -1     0     0     0     0  0.0000000000e+00  0.0000000000e+00  4.0000000000e+02  4.0000000000e+02  0.0000000000e+00 0. 9.
      -11    -1     0     0     0     0  0.0000000000e+00  0.0000000000e+00 -4.0000000000e+02  4.0000000000e+02  0.0000000000e+00 0. 9.
       25     2     1     2     0     0  0.0000000000e+00  0.0000000000e+00  0.0000000000e+00  8.0000000000e+02  8.0000000000e+02 0. 9.
       21     1     3     0   101   102 -2.6481166822e+02 -2.9679868105e+02 -4.2253086286e+01  4.0000000000e+02  0.0000000000e+00 0. 9.
       21     1     3     0   102   101  2.6481166822e+02  2.9679868105e+02  4.2253086286e+01  4.0000000000e+02  0.0000000000e+00 0. 9.
#pdf   11  -11  1.000000e+00  1.000000e+00  8.000000e+02  1.000000e+00  1.000000e+00
</event>
<event>
     5  9999  1.000000e+00  8.000000e+02  8.014810e-03  9.824665e-02
       11    -1     0     0     0     0  0.0000000000e+00  0.0000000000e+00  4.0000000000e+02  4.0000000000e+02  0.0000000000e+00 0. 9.
      -11    -1     0     0     0     0  0.0000000000e+00  0.0000000000e+00 -4.0000000000e+02  4.0000000000e+02  0.0000000000e+00 0. 9.
       25     2     1     2     0     0  0.0000000000e+00  0.0000000000e+00  0.0000000000e+00  8.0000000000e+02  8.0000000000e+02 0. 9.
       21     1     3     0   101   102 -3.9895889043e+02 -2.7693809763e+01  8.0533626504e+00  4.0000000000e+02  0.0000000000e+00 0. 9.
       21     1     3     0   102   101  3.9895889043e+02  2.7693809763e+01 -8.0533626504e+00  4.0000000000e+02  0.0000000000e+00 0. 9.
#pdf   11  -11  1.000000e+00  1.000000e+00  8.000000e+02  1.000000e+00  1.000000e+00
</event>
<event>
     5  9999  1.000000e+00  8.000000e+02  8.014810e-03  9.824665e-02
       11    -1     0     0     0     0  0.0000000000e+00  0.0000000000e+00  4.0000000000e+02  4.0000000000e+02  0.0000000000e+00 0. 9.
      -11    -1     0     0     0     0  0.0000000000e+00  0.0000000000e+00 -4.0000000000e+02  4.0000000000e+02  0.0000000000e+00 0. 9.
       25     2     1     2     0     0  0.0000000000e+00  0.0000000000e+00  0.0000000000e+00  8.0000000000e+02  8.0000000000e+02 0. 9.
       21     1     3     0   101   102  1.9099560482e+02 -3.5133187867e+02  9.3053733221e+00  4.0000000000e+02  0.0000000000e+00 0. 9.
       21     1     3     0   102   101 -1.9099560482e+02  3.5133187867e+02 -9.3053733221e+00  4.0000000000e+02  0.0000000000e+00 0. 9.
#pdf   11  -11  1.000000e+00  1.000000e+00  8.000000e+02  1.000000e+00  1.000000e+00
</event>
<event>
     5  9999  1.000000e+00  8.000000e+02  8.014810e-03  9.824665e-02
       11    -1     0     0     0     0  0.0000000000e+00  0.0000000000e+00  4.0000000000e+02  4.0000000000e+02  0.0000000000e+00 0. 9.
      -11    -1     0     0     0     0  0.0000000000e+00  0.0000000000e+00 -4.0000000000e+02  4.0000000000e+02  0.0000000000e+00 0. 9.
       25     2     1     2     0     0  0.0000000000e+00  0.0000000000e+00  0.0000000000e+00  8.0000000000e+02  8.0000000000e+02 0. 9.
       21     1     3     0   101   102  3.1460464273e+02 -8.3758950564e+01 -2.3239698143e+02  4.0000000000e+02  0.0000000000e+00 0. 9.
       21     1     3     0   102   101 -3.1460464273e+02  8.3758950564e+01  2.3239698143e+02  4.0000000000e+02  0.0000000000e+00 0. 9.
#pdf   11  -11  1.000000e+00  1.000000e+00  8.000000e+02  1.000000e+00  1.000000e+00
</event>
<event>
     5  9999  1.000000e+00  8.000000e+02  8.014810e-03  9.824665e-02
       11    -1     0     0     0     0  0.0000000000e+00  0.0000000000e+00  4.0000000000e+02  4.0000000000e+02  0.0000000000e+00 0. 9.
      -11    -1     0     0     0     0  0.0000000000e+00  0.0000000000e+00 -4.0000000000e+02  4.0000000000e+02  0.0000000000e+00 0. 9.
       25     2     1     2     0     0  0.0000000000e+00  0.0000000000e+00  0.0000000000e+00  8.0000000000e+02  8.0000000000e+02 0. 9.
       21     1     3     0   101   102  3.7434640605e+02  1.3185854393e+02 -4.9780444624e+01  4.0000000000e+02  0.0000000000e+00 0. 9.
       21     1     3     0   102   101 -3.7434640605e+02 -1.3185854393e+02  4.9780444624e+01  4.0000000000e+02  0.0000000000e+00 0. 9.
#pdf   11  -11  1.000000e+00  1.000000e+00  8.000000e+02  1.000000e+00  1.000000e+00
</event>
<event>
     5  9999  1.000000e+00  8.000000e+02  8.014810e-03  9.824665e-02
       11    -1     0     0     0     0  0.0000000000e+00  0.0000000000e+00  4.0000000000e+02  4.0000000000e+02  0.0000000000e+00 0. 9.
      -11    -1     0     0     0     0  0.0000000000e+00  0.0000000000e+00 -4.0000000000e+02  4.0000000000e+02  0.0000000000e+00 0. 9.
       25     2     1     2     0     0  0.0000000000e+00  0.0000000000e+00  0.0000000000e+00  8.0000000000e+02  8.0000000000e+02 0. 9.
       21     1     3     0   101   102  3.7006144017e+02 -1.5813136106e+01  1.5101150693e+02  4.0000000000e+02  0.0000000000e+00 0. 9.
       21     1     3     0   102   101 -3.7006144017e+02  1.5813136106e+01 -1.5101150693e+02  4.0000000000e+02  0.0000000000e+00 0. 9.
#pdf   11  -11  1.000000e+00  1.000000e+00  8.000000e+02  1.000000e+00  1.000000e+00
</event>
<event>
     5  9999  1.000000e+00  8.000000e+02  8.014810e-03  9.824665e-02
       11    -1     0     0     0     0  0.0000000000e+00  0.0000000000e+00  4.0000000000e+02  4.0000000000e+02  0.0000000000e+00 0. 9.
      -11    -1     0     0     0     0  0.0000000000e+00  0.0000000000e+00 -4.0000000000e+02  4.0000000000e+02  0.0000000000e+00 0. 9.
       25     2     1     2     0     0  0.0000000000e+00  0.0000000000e+00  0.0000000000e+00  8.0000000000e+02  8.0000000000e+02 0. 9.
       21     1     3     0   101   102  3.3251829892e+02  1.5156490189e+02  1.6266425974e+02  4.0000000000e+02  0.0000000000e+00 0. 9.
       21     1     3     0   102   101 -3.3251829892e+02 -1.5156490189e+02 -1.6266425974e+02  4.0000000000e+02  0.0000000000e+00 0. 9.
#pdf   11  -11  1.000000e+00  1.000000e+00  8.000000e+02  1.000000e+00  1.000000e+00
</event>
<event>
     5  9999  1.000000e+00  8.000000e+02  8.014810e-03  9.824665e-02
       11    -1     0     0     0     0  0.0000000000e+00  0.0000000000e+00  4.0000000000e+02  4.0000000000e+02  0.0000000000e+00 0. 9.
      -11    -1     0     0     0     0  0.0000000000e+00  0.0000000000e+00 -4.0000000000e+02  4.0000000000e+02  0.0000000000e+00 0. 9.
       25     2     1     2     0     0  0.0000000000e+00  0.0000000000e+00  0.0000000000e+00  8.0000000000e+02  8.0000000000e+02 0. 9.
       21     1     3     0   101   102  1.0473434468e+02 -3.2240342294e+02 -2.1233640744e+02  4.0000000000e+02  0.0000000000e+00 0. 9.
       21     1     3     0   102   101 -1.0473434468e+02  3.2240342294e+02  2.1233640744e+02  4.0000000000e+02  0.0000000000e+00 0. 9.
#pdf   11  -11  1.000000e+00  1.000000e+00  8.000000e+02  1.000000e+00  1.000000e+00
</event>
<event>
     5  9999  1.000000e+00  8.000000e+02  8.014810e-03  9.824665e-02
       11    -1     0     0     0     0  0.0000000000e+00  0.0000000000e+00  4.0000000000e+02  4.0000000000e+02  0.0000000000e+00 0. 9.
      -11    -1     0     0     0     0  0.0000000000e+00  0.0000000000e+00 -4.0000000000e+02  4.0000000000e+02  0.0000000000e+00 0. 9.
       25     2     1     2     0     0  0.0000000000e+00  0.0000000000e+00  0.0000000000e+00  8.0000000000e+02  8.0000000000e+02 0. 9.
       21     1     3     0   101   102  1.1643679707e+02 -1.5891561297e+02  3.4812109997e+02  4.0000000000e+02  0.0000000000e+00 0. 9.
       21     1     3     0   102   101 -1.1643679707e+02  1.5891561297e+02 -3.4812109997e+02  4.0000000000e+02  0.0000000000e+00 0. 9.
#pdf   11  -11  1.000000e+00  1.000000e+00  8.000000e+02  1.000000e+00  1.000000e+00
</event>
<event>
     5  9999  1.000000e+00  8.000000e+02  8.014810e-03  9.824665e-02
       11    -1     0     0     0     0  0.0000000000e+00  0.0000000000e+00  4.0000000000e+02  4.0000000000e+02  0.0000000000e+00 0. 9.
      -11    -1     0     0     0     0  0.0000000000e+00  0.0000000000e+00 -4.0000000000e+02  4.0000000000e+02  0.0000000000e+00 0. 9.
       25     2     1     2     0     0  0.0000000000e+00  0.0000000000e+00  0.0000000000e+00  8.0000000000e+02  8.0000000000e+02 0. 9.
       21     1     3     0   101   102 -1.2924575199e+02 -3.0344897528e+02 -2.2630566717e+02  4.0000000000e+02  0.0000000000e+00 0. 9.
       21     1     3     0   102   101  1.2924575199e+02  3.0344897528e+02  2.2630566717e+02  4.0000000000e+02  0.0000000000e+00 0. 9.
#pdf   11  -11  1.000000e+00  1.000000e+00  8.000000e+02  1.000000e+00  1.000000e+00
</event>
<event>
     5  9999  1.000000e+00  8.000000e+02  8.014810e-03  9.824665e-02
       11    -1     0     0     0     0  0.0000000000e+00  0.0000000000e+00  4.0000000000e+02  4.0000000000e+02  0.0000000000e+00 0. 9.
      -11    -1     0     0     0     0  0.0000000000e+00  0.0000000000e+00 -4.0000000000e+02  4.0000000000e+02  0.0000000000e+00 0. 9.
       25     2     1     2     0     0  0.0000000000e+00  0.0000000000e+00  0.0000000000e+00  8.0000000000e+02  8.0000000000e+02 0. 9.
       21     1     3     0   101   102 -3.0374012666e+02 -2.2527402363e+02 -1.3035931011e+02  4.0000000000e+02  0.0000000000e+00 0. 9.
       21     1     3     0   102   101  3.0374012666e+02  2.2527402363e+02  1.3035931011e+02  4.0000000000e+02  0.0000000000e+00 0. 9.
#pdf   11  -11  1.000000e+00  1.000000e+00  8.000000e+02  1.000000e+00  1.000000e+00
</event>
<event>
     5  9999  1.000000e+00  8.000000e+02  8.014810e-03  9.824665e-02
       11    -1     0     0     0     0  0.0000000000e+00  0.0000000000e+00  4.0000000000e+02  4.0000000000e+02  0.0000000000e+00 0. 9.
      -11    -1     0     0     0     0  0.0000000000e+00  0.0000000000e+00 -4.0000000000e+02  4.0000000000e+02  0.0000000000e+00 0. 9.
       25     2     1     2     0     0  0.0000000000e+00  0.0000000000e+00  0.0000000000e+00  8.0000000000e+02  8.0000000000e+02 0. 9.
       21     1     3     0   101   102 -3.8224419574e+02  2.6653590168e+01  1.1479965573e+02  4.0000000000e+02  0.0000000000e+00 0. 9.
       21     1     3     0   102   101  3.8224419574e+02 -2.6653590168e+01 -1.1479965573e+02  4.0000000000e+02  0.0000000000e+00 0. 9.
#pdf   11  -11  1.000000e+00  1.000000e+00  8.000000e+02  1.000000e+00  1.000000e+00
</event>
<event>
     5  9999  1.000000e+00  8.000000e+02  8.014810e-03  9.824665e-02
       11    -1     0     0     0     0  0.0000000000e+00  0.0000000000e+00  4.0000000000e+02  4.0000000000e+02  0.0000000000e+00 0. 9.
      -11    -1     0     0     0     0  0.0000000000e+00  0.0000000000e+00 -4.0000000000e+02  4.0000000000e+02  0.0000000000e+00 0. 9.
       25     2     1     2     0     0  0.0000000000e+00  0.0000000000e+00  0.0000000000e+00  8.0000000000e+02  8.0000000000e+02 0. 9.
       21     1     3     0   101   102  3.3147364671e+02  2.8944915190e+01 -2.2200768775e+02  4.0000000000e+02  0.0000000000e+00 0. 9.
       21     1     3     0   102   101 -3.3147364671e+02 -2.8944915190e+01  2.2200768775e+02  4.0000000000e+02  0.0000000000e+00 0. 9.
#pdf   11  -11  1.000000e+00  1.000000e+00  8.000000e+02  1.000000e+00  1.000000e+00
</event>
<event>
     5  9999  1.000000e+00  8.000000e+02  8.014810e-03  9.824665e-02
       11    -1     0     0     0     0  0.0000000000e+00  0.0000000000e+00  4.0000000000e+02  4.0000000000e+02  0.0000000000e+00 0. 9.
      -11    -1     0     0     0     0  0.0000000000e+00  0.0000000000e+00 -4.0000000000e+02  4.0000000000e+02  0.0000000000e+00 0. 9.
       25     2     1     2     0     0  0.0000000000e+00  0.0000000000e+00  0.0000000000e+00  8.0000000000e+02  8.0000000000e+02 0. 9.
       21     1     3     0   101   102  3.8450545155e+02  8.0395816859e+01 -7.5445810763e+01  4.0000000000e+02  0.0000000000e+00 0. 9.
       21     1     3     0   102   101 -3.8450545155e+02 -8.0395816859e+01  7.5445810763e+01  4.0000000000e+02  0.0000000000e+00 0. 9.
#pdf   11  -11  1.000000e+00  1.000000e+00  8.000000e+02  1.000000e+00  1.000000e+00
</event>
<event>
     5  9999  1.000000e+00  8.000000e+02  8.014810e-03  9.824665e-02
       11    -1     0     0     0     0  0.0000000000e+00  0.0000000000e+00  4.0000000000e+02  4.0000000000e+02  0.0000000000e+00 0. 9.
      -11    -1     0     0     0     0  0.0000000000e+00  0.0000000000e+00 -4.0000000000e+02  4.0000000000e+02  0.0000000000e+00 0. 9.
       25     2     1     2     0     0  0.0000000000e+00  0.0000000000e+00  0.0000000000e+00  8.0000000000e+02  8.0000000000e+02 0. 9.
       21     1     3     0   101   102  1.1252145443e+02 -3.4074989100e+02 -1.7671568712e+02  4.0000000000e+02  0.0000000000e+00 0. 9.
       21     1     3     0   102   101 -1.1252145443e+02  3.4074989100e+02  1.7671568712e+02  4.0000000000e+02  0.0000000000e+00 0. 9.
#pdf   11  -11  1.000000e+00  1.000000e+00  8.000000e+02  1.000000e+00  1.000000e+00
</event>
<event>
     5  9999  1.000000e+00  8.000000e+02  8.014810e-03  9.824665e-02
       11    -1     0     0     0     0  0.0000000000e+00  0.0000000000e+00  4.0000000000e+02  4.0000000000e+02  0.0000000000e+00 0. 9.
      -11    -1     0     0     0     0  0.0000000000e+00  0.0000000000e+00 -4.0000000000e+02  4.0000000000e+02  0.0000000000e+00 0. 9.
       25     2     1     2     0     0  0.0000000000e+00  0.0000000000e+00  0.0000000000e+00  8.0000000000e+02  8.0000000000e+02 0. 9.
       21     1     3     0   101   102  3.0480598171e+02  2.4495819877e+02 -8.4194978271e+01  4.0000000000e+02  0.0000000000e+00 0. 9.
       21     1     3     0   102   101 -3.0480598171e+02 -2.4495819877e+02  8.4194978271e+01  4.0000000000e+02  0.0000000000e+00 0. 9.
#pdf   11  -11  1.000000e+00  1.000000e+00  8.000000e+02  1.000000e+00  1.000000e+00
</event>
<event>
     5  9999  1.000000e+00  8.000000e+02  8.014810e-03  9.824665e-02
       11    -1     0     0     0     0  0.0000000000e+00  0.0000000000e+00  4.0000000000e+02  4.0000000000e+02  0.0000000000e+00 0. 9.
      -11    -1     0     0     0     0  0.0000000000e+00  0.0000000000e+00 -4.0000000000e+02  4.0000000000e+02  0.0000000000e+00 0. 9.
       25     2     1     2     0     0  0.0000000000e+00  0.0000000000e+00  0.0000000000e+00  8.0000000000e+02  8.0000000000e+02 0. 9.
       21     1     3     0   101   102  3.1993966026e+01  1.1791027284e+02  3.8088522378e+02  4.0000000000e+02  0.0000000000e+00 0. 9.
       21     1     3     0   102   101 -3.1993966026e+01 -1.1791027284e+02 -3.8088522378e+02  4.0000000000e+02  0.0000000000e+00 0. 9.
#pdf   11  -11  1.000000e+00  1.000000e+00  8.000000e+02  1.000000e+00  1.000000e+00
</event>
<event>
     5  9999  1.000000e+00  8.000000e+02  8.014810e-03  9.824665e-02
       11    -1     0     0     0     0  0.0000000000e+00  0.0000000000e+00  4.0000000000e+02  4.0000000000e+02  0.0000000000e+00 0. 9.
      -11    -1     0     0     0     0  0.0000000000e+00  0.0000000000e+00 -4.0000000000e+02  4.0000000000e+02  0.0000000000e+00 0. 9.
       25     2     1     2     0     0  0.0000000000e+00  0.0000000000e+00  0.0000000000e+00  8.0000000000e+02  8.0000000000e+02 0. 9.
       21     1     3     0   101   102 -2.9086320061e+02  2.6052342453e+02 -8.6753350367e+01  4.0000000000e+02  0.0000000000e+00 0. 9.
       21     1     3     0   102   101  2.9086320061e+02 -2.6052342453e+02  8.6753350367e+01  4.0000000000e+02  0.0000000000e+00 0. 9.
#pdf   11  -11  1.000000e+00  1.000000e+00  8.000000e+02  1.000000e+00  1.000000e+00
</event>
<event>
     5  9999  1.000000e+00  8.000000e+02  8.014810e-03  9.824665e-02
       11    -1     0     0     0     0  0.0000000000e+00  0.0000000000e+00  4.0000000000e+02  4.0000000000e+02  0.0000000000e+00 0. 9.
      -11    -1     0     0     0     0  0.0000000000e+00  0.0000000000e+00 -4.0000000000e+02  4.0000000000e+02  0.0000000000e+00 0. 9.
       25     2     1     2     0     0  0.0000000000e+00  0.0000000000e+00  0.0000000000e+00  8.0000000000e+02  8.0000000000e+02 0. 9.
       21     1     3     0   101   102  1.8579094087e+02 -3.4345446996e+02 -8.6722277183e+01  4.0000000000e+02  0.0000000000e+00 0. 9.
       21     1     3     0   102   101 -1.8579094087e+02  3.4345446996e+02  8.6722277183e+01  4.0000000000e+02  0.0000000000e+00 0. 9.
#pdf   11  -11  1.000000e+00  1.000000e+00  8.000000e+02  1.000000e+00  1.000000e+00
</event>
<event>
     5  9999  1.000000e+00  8.000000e+02  8.014810e-03  9.824665e-02
       11    -1     0     0     0     0  0.0000000000e+00  0.0000000000e+00  4.0000000000e+02  4.0000000000e+02  0.0000000000e+00 0. 9.
      -11    -1     0     0     0     0  0.0000000000e+00  0.0000000000e+00 -4.0000000000e+02  4.0000000000e+02  0.0000000000e+00 0. 9.
       25     2     1     2     0     0  0.0000000000e+00  0.0000000000e+00  0.0000000000e+00  8.0000000000e+02  8.0000000000e+02 0. 9.
       21     1     3     0   101   102 -8.3404901547e-02 -3.1236183452e+02 -2.4986011562e+02  4.0000000000e+02  0.0000000000e+00 0. 9.
       21     1     3     0   102   101  8.3404901547e-02  3.1236183452e+02  2.4986011562e+02  4.0000000000e+02  0.0000000000e+00 0. 9.
#pdf   11  -11  1.000000e+00  1.000000e+00  8.000000e+02  1.000000e+00  1.000000e+00
</event>
<event>
     5  9999  1.000000e+00  8.000000e+02  8.014810e-03  9.824665e-02
       11    -1     0     0     0     0  0.0000000000e+00  0.0000000000e+00  4.0000000000e+02  4.0000000000e+02  0.0000000000e+00 0. 9.
      -11    -1     0     0     0     0  0.0000000000e+00  0.0000000000e+00 -4.0000000000e+02  4.0000000000e+02  0.0000000000e+00 0. 9.
       25     2     1     2     0     0  0.0000000000e+00  0.0000000000e+00  0.0000000000e+00  8.0000000000e+02  8.0000000000e+02 0. 9.
       21     1     3     0   101   102 -2.2536092271e+02 -3.0419670900e+02 -1.2913874997e+02  4.0000000000e+02  0.0000000000e+00 0. 9.
       21     1     3     0   102   101  2.2536092271e+02  3.0419670900e+02  1.2913874997e+02  4.0000000000e+02  0.0000000000e+00 0. 9.
#pdf   11  -11  1.000000e+00  1.000000e+00  8.000000e+02  1.000000e+00  1.000000e+00
</event>
<event>
     5  9999  1.000000e+00  8.000000e+02  8.014810e-03  9.824665e-02
       11    -1     0     0     0     0  0.0000000000e+00  0.0000000000e+00  4.0000000000e+02  4.0000000000e+02  0.0000000000e+00 0. 9.
      -11    -1     0     0     0     0  0.0000000000e+00  0.0000000000e+00 -4.0000000000e+02  4.0000000000e+02  0.0000000000e+00 0. 9.
       25     2     1     2     0     0  0.0000000000e+00  0.0000000000e+00  0.0000000000e+00  8.0000000000e+02  8.0000000000e+02 0. 9.
       21     1     3     0   101   102  2.9189044812e+02  2.5180431772e+02  1.0674526630e+02  4.0000000000e+02  0.0000000000e+00 0. 9.
       21     1     3     0   102   101 -2.9189044812e+02 -2.5180431772e+02 -1.0674526630e+02  4.0000000000e+02  0.0000000000e+00 0. 9.
#pdf   11  -11  1.000000e+00  1.000000e+00  8.000000e+02  1.000000e+00  1.000000e+00
</event>
<event>
     5  9999  1.000000e+00  8.000000e+02  8.014810e-03  9.824665e-02
       11    -1     0     0     0     0  0.0000000000e+00  0.0000000000e+00  4.0000000000e+02  4.0000000000e+02  0.0000000000e+00 0. 9.
      -11    -1     0     0     0     0  0.0000000000e+00  0.0000000000e+00 -4.0000000000e+02  4.0000000000e+02  0.0000000000e+00 0. 9.
       25     2     1     2     0     0  0.0000000000e+00  0.0000000000e+00  0.0000000000e+00  8.0000000000e+02  8.0000000000e+02 0. 9.
       21     1     3     0   101   102  2.3756635739e+02  3.2038924304e+02 -3.0215207778e+01  4.0000000000e+02  0.0000000000e+00 0. 9.
       21     1     3     0   102   101 -2.3756635739e+02 -3.2038924304e+02  3.0215207778e+01  4.0000000000e+02  0.0000000000e+00 0. 9.
#pdf   11  -11  1.000000e+00  1.000000e+00  8.000000e+02  1.000000e+00  1.000000e+00
</event>
<event>
     5  9999  1.000000e+00  8.000000e+02  8.014810e-03  9.824665e-02
       11    -1     0     0     0     0  0.0000000000e+00  0.0000000000e+00  4.0000000000e+02  4.0000000000e+02  0.0000000000e+00 0. 9.
      -11    -1     0     0     0     0  0.0000000000e+00  0.0000000000e+00 -4.0000000000e+02  4.0000000000e+02  0.0000000000e+00 0. 9.
       25     2     1     2     0     0  0.0000000000e+00  0.0000000000e+00  0.0000000000e+00  8.0000000000e+02  8.0000000000e+02 0. 9.
       21     1     3     0   101   102 -5.7798810118e+01 -3.0804440414e+02 -2.4853157269e+02  4.0000000000e+02  0.0000000000e+00 0. 9.
       21     1     3     0   102   101  5.7798810118e+01  3.0804440414e+02  2.4853157269e+02  4.0000000000e+02  0.0000000000e+00 0. 9.
#pdf   11  -11  1.000000e+00  1.000000e+00  8.000000e+02  1.000000e+00  1.000000e+00
</event>
<event>
     5  9999  1.000000e+00  8.000000e+02  8.014810e-03  9.824665e-02
       11    -1     0     0     0     0  0.0000000000e+00  0.0000000000e+00  4.0000000000e+02  4.0000000000e+02  0.0000000000e+00 0. 9.
      -11    -1     0     0     0     0  0.0000000000e+00  0.0000000000e+00 -4.0000000000e+02  4.0000000000e+02  0.0000000000e+00 0. 9.
       25     2     1     2     0     0  0.0000000000e+00  0.0000000000e+00  0.0000000000e+00  8.0000000000e+02  8.0000000000e+02 0. 9.
       21     1     3     0   101   102  5.4211299957e+01 -2.1652949476e+02 -3.3192787297e+02  4.0000000000e+02  0.0000000000e+00 0. 9.
       21     1     3     0   102   101 -5.4211299957e+01  2.1652949476e+02  3.3192787297e+02  4.0000000000e+02  0.0000000000e+00 0. 9.
#pdf   11  -11  1.000000e+00  1.000000e+00  8.000000e+02  1.000000e+00  1.000000e+00
</event>
<event>
     5  9999  1.000000e+00  8.000000e+02  8.014810e-03  9.824665e-02
       11    -1     0     0     0     0  0.0000000000e+00  0.0000000000e+00  4.0000000000e+02  4.0000000000e+02  0.0000000000e+00 0. 9.
      -11    -1     0     0     0     0  0.0000000000e+00  0.0000000000e+00 -4.0000000000e+02  4.0000000000e+02  0.0000000000e+00 0. 9.
       25     2     1     2     0     0  0.0000000000e+00  0.0000000000e+00  0.0000000000e+00  8.0000000000e+02  8.0000000000e+02 0. 9.
       21     1     3     0   101   102  3.5897034364e+02  1.5981528023e+02  7.4828928846e+01  4.0000000000e+02  0.0000000000e+00 0. 9.
       21     1     3     0   102   101 -3.5897034364e+02 -1.5981528023e+02 -7.4828928846e+01  4.0000000000e+02  0.0000000000e+00 0. 9.
#pdf   11  -11  1.000000e+00  1.000000e+00  8.000000e+02  1.000000e+00  1.000000e+00
</event>
<event>
     5  9999  1.000000e+00  8.000000e+02  8.014810e-03  9.824665e-02
       11    -1     0     0     0     0  0.0000000000e+00  0.0000000000e+00  4.0000000000e+02  4.0000000000e+02  0.0000000000e+00 0. 9.
      -11    -1     0     0     0     0  0.0000000000e+00  0.0000000000e+00 -4.0000000000e+02  4.0000000000e+02  0.0000000000e+00 0. 9.
       25     2     1     2     0     0  0.0000000000e+00  0.0000000000e+00  0.0000000000e+00  8.0000000000e+02  8.0000000000e+02 0. 9.
       21     1     3     0   101   102  1.0970018463e+02 -3.7205915380e+02  9.7661945343e+01  4.0000000000e+02  0.0000000000e+00 0. 9.
       21     1     3     0   102   101 -1.0970018463e+02  3.7205915380e+02 -9.7661945343e+01  4.0000000000e+02  0.0000000000e+00 0. 9.
#pdf   11  -11  1.000000e+00  1.000000e+00  8.000000e+02  1.000000e+00  1.000000e+00
</event>
<event>
     5  9999  1.000000e+00  8.000000e+02  8.014810e-03  9.824665e-02
       11    -1     0     0     0     0  0.0000000000e+00  0.0000000000e+00  4.0000000000e+02  4.0000000000e+02  0.0000000000e+00 0. 9.
      -11    -1     0     0     0     0  0.0000000000e+00  0.0000000000e+00 -4.0000000000e+02  4.0000000000e+02  0.0000000000e+00 0. 9.
       25     2     1     2     0     0  0.0000000000e+00  0.0000000000e+00  0.0000000000e+00  8.0000000000e+02  8.0000000000e+02 0. 9.
       21     1     3     0   101   102  2.5933934935e+02 -2.5879758260e+02 -1.6052075604e+02  4.0000000000e+02  0.0000000000e+00 0. 9.
       21     1     3     0   102   101 -2.5933934935e+02  2.5879758260e+02  1.6052075604e+02  4.0000000000e+02  0.0000000000e+00 0. 9.
#pdf   11  -11  1.000000e+00  1.000000e+00  8.000000e+02  1.000000e+00  1.000000e+00
</event>
<event>
     5  9999  1.000000e+00  8.000000e+02  8.014810e-03  9.824665e-02
       11    -1     0     0     0     0  0.0000000000e+00  0.0000000000e+00  4.0000000000e+02  4.0000000000e+02  0.0000000000e+00 0. 9.
      -11    -1     0     0     0     0  0.0000000000e+00  0.0000000000e+00 -4.0000000000e+02  4.0000000000e+02  0.0000000000e+00 0. 9.
       25     2     1     2     0     0  0.0000000000e+00  0.0000000000e+00  0.0000000000e+00  8.0000000000e+02  8.0000000000e+02 0. 9.
       21     1     3     0   101   102 -3.3826498414e+02  8.9635744852e+01 -1.9375818371e+02  4.0000000000e+02  0.0000000000e+00 0. 9.
       21     1     3     0   102   101  3.3826498414e+02 -8.9635744852e+01  1.9375818371e+02  4.0000000000e+02  0.0000000000e+00 0. 9.
#pdf   11  -11  1.000000e+00  1.000000e+00  8.000000e+02  1.000000e+00  1.000000e+00
</event>
<event>
     5  9999  1.000000e+00  8.000000e+02  8.014810e-03  9.824665e-02
       11    -1     0     0     0     0  0.0000000000e+00  0.0000000000e+00  4.0000000000e+02  4.0000000000e+02  0.0000000000e+00 0. 9.
      -11    -1     0     0     0     0  0.0000000000e+00  0.0000000000e+00 -4.0000000000e+02  4.0000000000e+02  0.0000000000e+00 0. 9.
       25     2     1     2     0     0  0.0000000000e+00  0.0000000000e+00  0.0000000000e+00  8.0000000000e+02  8.0000000000e+02 0. 9.
       21     1     3     0   101   102 -1.0876301280e+02  8.6189431565e+01  3.7515595282e+02  4.0000000000e+02  0.0000000000e+00 0. 9.
       21     1     3     0   102   101  1.0876301280e+02 -8.6189431565e+01 -3.7515595282e+02  4.0000000000e+02  0.0000000000e+00 0. 9.
#pdf   11  -11  1.000000e+00  1.000000e+00  8.000000e+02  1.000000e+00  1.000000e+00
</event>
<event>
     5  9999  1.000000e+00  8.000000e+02  8.014810e-03  9.824665e-02
       11    -1     0     0     0     0  0.0000000000e+00  0.0000000000e+00  4.0000000000e+02  4.0000000000e+02  0.0000000000e+00 0. 9.
      -11    -1     0     0     0     0  0.0000000000e+00  0.0000000000e+00 -4.0000000000e+02  4.0000000000e+02  0.0000000000e+00 0. 9.
       25     2     1     2     0     0  0.0000000000e+00  0.0000000000e+00  0.0000000000e+00  8.0000000000e+02  8.0000000000e+02 0. 9.
       21     1     3     0   101   102  3.1110379487e+01  3.3620700947e+02  2.1446909118e+02  4.0000000000e+02  0.0000000000e+00 0. 9.
       21     1     3     0   102   101 -3.1110379487e+01 -3.3620700947e+02 -2.1446909118e+02  4.0000000000e+02  0.0000000000e+00 0. 9.
#pdf   11  -11  1.000000e+00  1.000000e+00  8.000000e+02  1.000000e+00  1.000000e+00
</event>
<event>
     5  9999  1.000000e+00  8.000000e+02  8.014810e-03  9.824665e-02
       11    -1     0     0     0     0  0.0000000000e+00  0.0000000000e+00  4.0000000000e+02  4.0000000000e+02  0.0000000000e+00 0. 9.
      -11    -1     0     0     0     0  0.0000000000e+00  0.0000000000e+00 -4.0000000000e+02  4.0000000000e+02  0.0000000000e+00 0. 9.
       25     2     1     2     0     0  0.0000000000e+00  0.0000000000e+00  0.0000000000e+00  8.0000000000e+02  8.0000000000e+02 0. 9.
       21     1     3     0   101   102  2.3681858214e+01 -1.7616355546e+02 -3.5833723128e+02  4.0000000000e+02  0.0000000000e+00 0. 9.
       21     1     3     0   102   101 -2.3681858214e+01  1.7616355546e+02  3.5833723128e+02  4.0000000000e+02  0.0000000000e+00 0. 9.
#pdf   11  -11  1.000000e+00  1.000000e+00  8.000000e+02  1.000000e+00  1.000000e+00
</event>
<event>
     5  9999  1.000000e+00  8.000000e+02  8.014810e-03  9.824665e-02
       11    -1     0     0     0     0  0.0000000000e+00  0.0000000000e+00  4.0000000000e+02  4.0000000000e+02  0.0000000000e+00 0. 9.
      -11    -1     0     0     0     0  0.0000000000e+00  0.0000000000e+00 -4.0000000000e+02  4.0000000000e+02  0.0000000000e+00 0. 9.
       25     2     1     2     0     0  0.0000000000e+00  0.0000000000e+00  0.0000000000e+00  8.0000000000e+02  8.0000000000e+02 0. 9.
       21     1     3     0   101   102  1.8464157548e+02  2.0007798657e+02  2.9304656268e+02  4.0000000000e+02  0.0000000000e+00 0. 9.
       21     1     3     0   102   101 -1.8464157548e+02 -2.0007798657e+02 -2.9304656268e+02  4.0000000000e+02  0.0000000000e+00 0. 9.
#pdf   11  -11  1.000000e+00  1.000000e+00  8.000000e+02  1.000000e+00  1.000000e+00
</event>
<event>
     5  9999  1.000000e+00  8.000000e+02  8.014810e-03  9.824665e-02
       11    -1     0     0     0     0  0.0000000000e+00  0.0000000000e+00  4.0000000000e+02  4.0000000000e+02  0.0000000000e+00 0. 9.
      -11    -1     0     0     0     0  0.0000000000e+00  0.0000000000e+00 -4.0000000000e+02  4.0000000000e+02  0.0000000000e+00 0. 9.
       25     2     1     2     0     0  0.0000000000e+00  0.0000000000e+00  0.0000000000e+00  8.0000000000e+02  8.0000000000e+02 0. 9.
       21     1     3     0   101   102 -7.6762447105e+01  3.9053685973e+02  3.9855839024e+01  4.0000000000e+02  0.0000000000e+00 0. 9.
       21     1     3     0   102   101  7.6762447105e+01 -3.9053685973e+02 -3.9855839024e+01  4.0000000000e+02  0.0000000000e+00 0. 9.
#pdf   11  -11  1.000000e+00  1.000000e+00  8.000000e+02  1.000000e+00  1.000000e+00
</event>
<event>
     5  9999  1.000000e+00  8.000000e+02  8.014810e-03  9.824665e-02
       11    -1     0     0     0     0  0.0000000000e+00  0.0000000000e+00  4.0000000000e+02  4.0000000000e+02  0.0000000000e+00 0. 9.
      -11    -1     0     0     0     0  0.0000000000e+00  0.0000000000e+00 -4.0000000000e+02  4.0000000000e+02  0.0000000000e+00 0. 9.
       25     2     1     2     0     0  0.0000000000e+00  0.0000000000e+00  0.0000000000e+00  8.0000000000e+02  8.0000000000e+02 0. 9.
       21     1     3     0   101   102 -4.3154638737e+01  3.9752019159e+02  1.0741249300e+01  4.0000000000e+02  0.0000000000e+00 0. 9.
       21     1     3     0   102   101  4.3154638737e+01 -3.9752019159e+02 -1.0741249300e+01  4.0000000000e+02  0.0000000000e+00 0. 9.
#pdf   11  -11  1.000000e+00  1.000000e+00  8.000000e+02  1.000000e+00  1.000000e+00
</event>
<event>
     5  9999  1.000000e+00  8.000000e+02  8.014810e-03  9.824665e-02
       11    -1     0     0     0     0  0.0000000000e+00  0.0000000000e+00  4.0000000000e+02  4.0000000000e+02  0.0000000000e+00 0. 9.
      -11    -1     0     0     0     0  0.0000000000e+00  0.0000000000e+00 -4.0000000000e+02  4.0000000000e+02  0.0000000000e+00 0. 9.
       25     2     1     2     0     0  0.0000000000e+00  0.0000000000e+00  0.0000000000e+00  8.0000000000e+02  8.0000000000e+02 0. 9.
       21     1     3     0   101   102 -1.6933191017e+02 -3.5230901827e+02 -8.4882623924e+01  4.0000000000e+02  0.0000000000e+00 0. 9.
       21     1     3     0   102   101  1.6933191017e+02  3.5230901827e+02  8.4882623924e+01  4.0000000000e+02  0.0000000000e+00 0. 9.
#pdf   11  -11  1.000000e+00  1.000000e+00  8.000000e+02  1.000000e+00  1.000000e+00
</event>
<event>
     5  9999  1.000000e+00  8.000000e+02  8.014810e-03  9.824665e-02
       11    -1     0     0     0     0  0.0000000000e+00  0.0000000000e+00  4.0000000000e+02  4.0000000000e+02  0.0000000000e+00 0. 9.
      -11    -1     0     0     0     0  0.0000000000e+00  0.0000000000e+00 -4.0000000000e+02  4.0000000000e+02  0.0000000000e+00 0. 9.
       25     2     1     2     0     0  0.0000000000e+00  0.0000000000e+00  0.0000000000e+00  8.0000000000e+02  8.0000000000e+02 0. 9.
       21     1     3     0   101   102  3.1073251190e+02  8.9438319414e+01  2.3546994090e+02  4.0000000000e+02  0.0000000000e+00 0. 9.
       21     1     3     0   102   101 -3.1073251190e+02 -8.9438319414e+01 -2.3546994090e+02  4.0000000000e+02  0.0000000000e+00 0. 9.
#pdf   11  -11  1.000000e+00  1.000000e+00  8.000000e+02  1.000000e+00  1.000000e+00
</event>
<event>
     5  9999  1.000000e+00  8.000000e+02  8.014810e-03  9.824665e-02
       11    -1     0     0     0     0  0.0000000000e+00  0.0000000000e+00  4.0000000000e+02  4.0000000000e+02  0.0000000000e+00 0. 9.
      -11    -1     0     0     0     0  0.0000000000e+00  0.0000000000e+00 -4.0000000000e+02  4.0000000000e+02  0.0000000000e+00 0. 9.
       25     2     1     2     0     0  0.0000000000e+00  0.0000000000e+00  0.0000000000e+00  8.0000000000e+02  8.0000000000e+02 0. 9.
       21     1     3     0   101   102  2.3507675448e+01  3.9192948595e+01  3.9738055058e+02  4.0000000000e+02  0.0000000000e+00 0. 9.
       21     1     3     0   102   101 -2.3507675448e+01 -3.9192948595e+01 -3.9738055058e+02  4.0000000000e+02  0.0000000000e+00 0. 9.
#pdf   11  -11  1.000000e+00  1.000000e+00  8.000000e+02  1.000000e+00  1.000000e+00
</event>
</LesHouchesEvents>
