<LesHouchesEvents version="1.0">
<!--
  File written by Pythia8::LHAup on 07 Jun 2015 at 18:23:12
-->
<init>
  11  -11  5.000000e+01  5.000000e+01  0  0  0  0  3  1
  1.687827e+02  0.000000e+00  1.000000e+00   9999
</init>
<event>
     5  9999  1.000000e+00  1.000000e+02  7.825693e-03  1.281252e-01
       11    -1     0     0     0     0  0.0000000000e+00  0.0000000000e+00  5.0000000000e+01  5.0000000000e+01  0.0000000000e+00 0. 9.
      -11    -1     0     0     0     0  0.0000000000e+00  0.0000000000e+00 -5.0000000000e+01  5.0000000000e+01  0.0000000000e+00 0. 9.
       23     2     1     2     0     0  0.0000000000e+00  0.0000000000e+00  0.0000000000e+00  1.0000000000e+02  1.0000000000e+02 0. 9.
        2     1     3     0   101     0 -7.9762012485e+00 -4.1933029370e+01  2.6036366135e+01  5.0000000000e+01  3.3000000000e-01 0. 9.
       -2     1     3     0     0   101  7.9762012485e+00  4.1933029370e+01 -2.6036366135e+01  5.0000000000e+01  3.3000000000e-01 0. 9.
#pdf   11  -11  1.000000e+00  1.000000e+00  1.000000e+02  1.000000e+00  1.000000e+00
</event>
<event>
     5  9999  1.000000e+00  1.000000e+02  7.825693e-03  1.281252e-01
       11    -1     0     0     0     0  0.0000000000e+00  0.0000000000e+00  5.0000000000e+01  5.0000000000e+01  0.0000000000e+00 0. 9.
      -11    -1     0     0     0     0  0.0000000000e+00  0.0000000000e+00 -5.0000000000e+01  5.0000000000e+01  0.0000000000e+00 0. 9.
       23     2     1     2     0     0  0.0000000000e+00  0.0000000000e+00  0.0000000000e+00  1.0000000000e+02  1.0000000000e+02 0. 9.
        2     1     3     0   101     0  2.2829146497e+01  3.4904725198e+00  4.4345662379e+01  5.0000000000e+01  3.3000000000e-01 0. 9.
       -2     1     3     0     0   101 -2.2829146497e+01 -3.4904725198e+00 -4.4345662379e+01  5.0000000000e+01  3.3000000000e-01 0. 9.
#pdf   11  -11  1.000000e+00  1.000000e+00  1.000000e+02  1.000000e+00  1.000000e+00
</event>
<event>
     5  9999  1.000000e+00  1.000000e+02  7.825693e-03  1.281252e-01
       11    -1     0     0     0     0  0.0000000000e+00  0.0000000000e+00  5.0000000000e+01  5.0000000000e+01  0.0000000000e+00 0. 9.
      -11    -1     0     0     0     0  0.0000000000e+00  0.0000000000e+00 -5.0000000000e+01  5.0000000000e+01  0.0000000000e+00 0. 9.
       23     2     1     2     0     0  0.0000000000e+00  0.0000000000e+00  0.0000000000e+00  1.0000000000e+02  1.0000000000e+02 0. 9.
        2     1     3     0   101     0 -4.6399812309e+01  1.6348115025e+01  8.9267940959e+00  5.0000000000e+01  3.3000000000e-01 0. 9.
       -2     1     3     0     0   101  4.6399812309e+01 -1.6348115025e+01 -8.9267940959e+00  5.0000000000e+01  3.3000000000e-01 0. 9.
#pdf   11  -11  1.000000e+00  1.000000e+00  1.000000e+02  1.000000e+00  1.000000e+00
</event>
<event>
     5  9999  1.000000e+00  1.000000e+02  7.825693e-03  1.281252e-01
       11    -1     0     0     0     0  0.0000000000e+00  0.0000000000e+00  5.0000000000e+01  5.0000000000e+01  0.0000000000e+00 0. 9.
      -11    -1     0     0     0     0  0.0000000000e+00  0.0000000000e+00 -5.0000000000e+01  5.0000000000e+01  0.0000000000e+00 0. 9.
       23     2     1     2     0     0  0.0000000000e+00  0.0000000000e+00  0.0000000000e+00  1.0000000000e+02  1.0000000000e+02 0. 9.
        2     1     3     0   101     0  2.1543956135e+01  3.6166993915e+01  2.6975870796e+01  5.0000000000e+01  3.3000000000e-01 0. 9.
       -2     1     3     0     0   101 -2.1543956135e+01 -3.6166993915e+01 -2.6975870796e+01  5.0000000000e+01  3.3000000000e-01 0. 9.
#pdf   11  -11  1.000000e+00  1.000000e+00  1.000000e+02  1.000000e+00  1.000000e+00
</event>
<event>
     5  9999  1.000000e+00  1.000000e+02  7.825693e-03  1.281252e-01
       11    -1     0     0     0     0  0.0000000000e+00  0.0000000000e+00  5.0000000000e+01  5.0000000000e+01  0.0000000000e+00 0. 9.
      -11    -1     0     0     0     0  0.0000000000e+00  0.0000000000e+00 -5.0000000000e+01  5.0000000000e+01  0.0000000000e+00 0. 9.
       23     2     1     2     0     0  0.0000000000e+00  0.0000000000e+00  0.0000000000e+00  1.0000000000e+02  1.0000000000e+02 0. 9.
        2     1     3     0   101     0 -2.4847977403e+00  2.3787516947e+00  4.9880441263e+01  5.0000000000e+01  3.3000000000e-01 0. 9.
       -2     1     3     0     0   101  2.4847977403e+00 -2.3787516947e+00 -4.9880441263e+01  5.0000000000e+01  3.3000000000e-01 0. 9.
#pdf   11  -11  1.000000e+00  1.000000e+00  1.000000e+02  1.000000e+00  1.000000e+00
</event>
<event>
     5  9999  1.000000e+00  1.000000e+02  7.825693e-03  1.281252e-01
       11    -1     0     0     0     0  0.0000000000e+00  0.0000000000e+00  5.0000000000e+01  5.0000000000e+01  0.0000000000e+00 0. 9.
      -11    -1     0     0     0     0  0.0000000000e+00  0.0000000000e+00 -5.0000000000e+01  5.0000000000e+01  0.0000000000e+00 0. 9.
       23     2     1     2     0     0  0.0000000000e+00  0.0000000000e+00  0.0000000000e+00  1.0000000000e+02  1.0000000000e+02 0. 9.
        2     1     3     0   101     0  4.7449545270e+01  1.1614394971e+01 -1.0655401592e+01  5.0000000000e+01  3.3000000000e-01 0. 9.
       -2     1     3     0     0   101 -4.7449545270e+01 -1.1614394971e+01  1.0655401592e+01  5.0000000000e+01  3.3000000000e-01 0. 9.
#pdf   11  -11  1.000000e+00  1.000000e+00  1.000000e+02  1.000000e+00  1.000000e+00
</event>
<event>
     5  9999  1.000000e+00  1.000000e+02  7.825693e-03  1.281252e-01
       11    -1     0     0     0     0  0.0000000000e+00  0.0000000000e+00  5.0000000000e+01  5.0000000000e+01  0.0000000000e+00 0. 9.
      -11    -1     0     0     0     0  0.0000000000e+00  0.0000000000e+00 -5.0000000000e+01  5.0000000000e+01  0.0000000000e+00 0. 9.
       23     2     1     2     0     0  0.0000000000e+00  0.0000000000e+00  0.0000000000e+00  1.0000000000e+02  1.0000000000e+02 0. 9.
        2     1     3     0   101     0  1.9541463159e+01  3.7342259913e+01 -2.6899404123e+01  5.0000000000e+01  3.3000000000e-01 0. 9.
       -2     1     3     0     0   101 -1.9541463159e+01 -3.7342259913e+01  2.6899404123e+01  5.0000000000e+01  3.3000000000e-01 0. 9.
#pdf   11  -11  1.000000e+00  1.000000e+00  1.000000e+02  1.000000e+00  1.000000e+00
</event>
<event>
     5  9999  1.000000e+00  1.000000e+02  7.825693e-03  1.281252e-01
       11    -1     0     0     0     0  0.0000000000e+00  0.0000000000e+00  5.0000000000e+01  5.0000000000e+01  0.0000000000e+00 0. 9.
      -11    -1     0     0     0     0  0.0000000000e+00  0.0000000000e+00 -5.0000000000e+01  5.0000000000e+01  0.0000000000e+00 0. 9.
       23     2     1     2     0     0  0.0000000000e+00  0.0000000000e+00  0.0000000000e+00  1.0000000000e+02  1.0000000000e+02 0. 9.
        2     1     3     0   101     0 -1.2759031642e+01  2.5819158124e+01 -4.0871374889e+01  5.0000000000e+01  3.3000000000e-01 0. 9.
       -2     1     3     0     0   101  1.2759031642e+01 -2.5819158124e+01  4.0871374889e+01  5.0000000000e+01  3.3000000000e-01 0. 9.
#pdf   11  -11  1.000000e+00  1.000000e+00  1.000000e+02  1.000000e+00  1.000000e+00
</event>
<event>
     5  9999  1.000000e+00  1.000000e+02  7.825693e-03  1.281252e-01
       11    -1     0     0     0     0  0.0000000000e+00  0.0000000000e+00  5.0000000000e+01  5.0000000000e+01  0.0000000000e+00 0. 9.
      -11    -1     0     0     0     0  0.0000000000e+00  0.0000000000e+00 -5.0000000000e+01  5.0000000000e+01  0.0000000000e+00 0. 9.
       23     2     1     2     0     0  0.0000000000e+00  0.0000000000e+00  0.0000000000e+00  1.0000000000e+02  1.0000000000e+02 0. 9.
        2     1     3     0   101     0  1.3817262134e+01 -1.8978818559e+01  4.4144974949e+01  5.0000000000e+01  3.3000000000e-01 0. 9.
       -2     1     3     0     0   101 -1.3817262134e+01  1.8978818559e+01 -4.4144974949e+01  5.0000000000e+01  3.3000000000e-01 0. 9.
#pdf   11  -11  1.000000e+00  1.000000e+00  1.000000e+02  1.000000e+00  1.000000e+00
</event>
<event>
     5  9999  1.000000e+00  1.000000e+02  7.825693e-03  1.281252e-01
       11    -1     0     0     0     0  0.0000000000e+00  0.0000000000e+00  5.0000000000e+01  5.0000000000e+01  0.0000000000e+00 0. 9.
      -11    -1     0     0     0     0  0.0000000000e+00  0.0000000000e+00 -5.0000000000e+01  5.0000000000e+01  0.0000000000e+00 0. 9.
       23     2     1     2     0     0  0.0000000000e+00  0.0000000000e+00  0.0000000000e+00  1.0000000000e+02  1.0000000000e+02 0. 9.
        2     1     3     0   101     0  1.2995125269e+01 -2.4170853152e+01  4.1794589089e+01  5.0000000000e+01  3.3000000000e-01 0. 9.
       -2     1     3     0     0   101 -1.2995125269e+01  2.4170853152e+01 -4.1794589089e+01  5.0000000000e+01  3.3000000000e-01 0. 9.
#pdf   11  -11  1.000000e+00  1.000000e+00  1.000000e+02  1.000000e+00  1.000000e+00
</event>
<event>
     5  9999  1.000000e+00  1.000000e+02  7.825693e-03  1.281252e-01
       11    -1     0     0     0     0  0.0000000000e+00  0.0000000000e+00  5.0000000000e+01  5.0000000000e+01  0.0000000000e+00 0. 9.
      -11    -1     0     0     0     0  0.0000000000e+00  0.0000000000e+00 -5.0000000000e+01  5.0000000000e+01  0.0000000000e+00 0. 9.
       23     2     1     2     0     0  0.0000000000e+00  0.0000000000e+00  0.0000000000e+00  1.0000000000e+02  1.0000000000e+02 0. 9.
        2     1     3     0   101     0  1.9102412464e+01  2.1366136283e+01  4.0969222087e+01  5.0000000000e+01  3.3000000000e-01 0. 9.
       -2     1     3     0     0   101 -1.9102412464e+01 -2.1366136283e+01 -4.0969222087e+01  5.0000000000e+01  3.3000000000e-01 0. 9.
#pdf   11  -11  1.000000e+00  1.000000e+00  1.000000e+02  1.000000e+00  1.000000e+00
</event>
<event>
     5  9999  1.000000e+00  1.000000e+02  7.825693e-03  1.281252e-01
       11    -1     0     0     0     0  0.0000000000e+00  0.0000000000e+00  5.0000000000e+01  5.0000000000e+01  0.0000000000e+00 0. 9.
      -11    -1     0     0     0     0  0.0000000000e+00  0.0000000000e+00 -5.0000000000e+01  5.0000000000e+01  0.0000000000e+00 0. 9.
       23     2     1     2     0     0  0.0000000000e+00  0.0000000000e+00  0.0000000000e+00  1.0000000000e+02  1.0000000000e+02 0. 9.
        2     1     3     0   101     0 -2.0896323775e+01  9.8598094100e+00  4.4339811807e+01  5.0000000000e+01  3.3000000000e-01 0. 9.
       -2     1     3     0     0   101  2.0896323775e+01 -9.8598094100e+00 -4.4339811807e+01  5.0000000000e+01  3.3000000000e-01 0. 9.
#pdf   11  -11  1.000000e+00  1.000000e+00  1.000000e+02  1.000000e+00  1.000000e+00
</event>
<event>
     5  9999  1.000000e+00  1.000000e+02  7.825693e-03  1.281252e-01
       11    -1     0     0     0     0  0.0000000000e+00  0.0000000000e+00  5.0000000000e+01  5.0000000000e+01  0.0000000000e+00 0. 9.
      -11    -1     0     0     0     0  0.0000000000e+00  0.0000000000e+00 -5.0000000000e+01  5.0000000000e+01  0.0000000000e+00 0. 9.
       23     2     1     2     0     0  0.0000000000e+00  0.0000000000e+00  0.0000000000e+00  1.0000000000e+02  1.0000000000e+02 0. 9.
        2     1     3     0   101     0 -4.5641540465e+01  4.2563876565e+00  1.9965571570e+01  5.0000000000e+01  3.3000000000e-01 0. 9.
       -2     1     3     0     0   101  4.5641540465e+01 -4.2563876565e+00 -1.9965571570e+01  5.0000000000e+01  3.3000000000e-01 0. 9.
#pdf   11  -11  1.000000e+00  1.000000e+00  1.000000e+02  1.000000e+00  1.000000e+00
</event>
<event>
     5  9999  1.000000e+00  1.000000e+02  7.825693e-03  1.281252e-01
       11    -1     0     0     0     0  0.0000000000e+00  0.0000000000e+00  5.0000000000e+01  5.0000000000e+01  0.0000000000e+00 0. 9.
      -11    -1     0     0     0     0  0.0000000000e+00  0.0000000000e+00 -5.0000000000e+01  5.0000000000e+01  0.0000000000e+00 0. 9.
       23     2     1     2     0     0  0.0000000000e+00  0.0000000000e+00  0.0000000000e+00  1.0000000000e+02  1.0000000000e+02 0. 9.
        2     1     3     0   101     0 -2.7263914906e+01 -2.2199520717e+01  3.5549280217e+01  5.0000000000e+01  3.3000000000e-01 0. 9.
       -2     1     3     0     0   101  2.7263914906e+01  2.2199520717e+01 -3.5549280217e+01  5.0000000000e+01  3.3000000000e-01 0. 9.
#pdf   11  -11  1.000000e+00  1.000000e+00  1.000000e+02  1.000000e+00  1.000000e+00
</event>
<event>
     5  9999  1.000000e+00  1.000000e+02  7.825693e-03  1.281252e-01
       11    -1     0     0     0     0  0.0000000000e+00  0.0000000000e+00  5.0000000000e+01  5.0000000000e+01  0.0000000000e+00 0. 9.
      -11    -1     0     0     0     0  0.0000000000e+00  0.0000000000e+00 -5.0000000000e+01  5.0000000000e+01  0.0000000000e+00 0. 9.
       23     2     1     2     0     0  0.0000000000e+00  0.0000000000e+00  0.0000000000e+00  1.0000000000e+02  1.0000000000e+02 0. 9.
        2     1     3     0   101     0  2.5943181873e+01 -3.7931889320e+01 -1.9698075716e+01  5.0000000000e+01  3.3000000000e-01 0. 9.
       -2     1     3     0     0   101 -2.5943181873e+01  3.7931889320e+01  1.9698075716e+01  5.0000000000e+01  3.3000000000e-01 0. 9.
#pdf   11  -11  1.000000e+00  1.000000e+00  1.000000e+02  1.000000e+00  1.000000e+00
</event>
<event>
     5  9999  1.000000e+00  1.000000e+02  7.825693e-03  1.281252e-01
       11    -1     0     0     0     0  0.0000000000e+00  0.0000000000e+00  5.0000000000e+01  5.0000000000e+01  0.0000000000e+00 0. 9.
      -11    -1     0     0     0     0  0.0000000000e+00  0.0000000000e+00 -5.0000000000e+01  5.0000000000e+01  0.0000000000e+00 0. 9.
       23     2     1     2     0     0  0.0000000000e+00  0.0000000000e+00  0.0000000000e+00  1.0000000000e+02  1.0000000000e+02 0. 9.
        2     1     3     0   101     0 -1.5506845985e+01 -2.2697987500e+01  4.1763981983e+01  5.0000000000e+01  3.3000000000e-01 0. 9.
       -2     1     3     0     0   101  1.5506845985e+01  2.2697987500e+01 -4.1763981983e+01  5.0000000000e+01  3.3000000000e-01 0. 9.
#pdf   11  -11  1.000000e+00  1.000000e+00  1.000000e+02  1.000000e+00  1.000000e+00
</event>
<event>
     5  9999  1.000000e+00  1.000000e+02  7.825693e-03  1.281252e-01
       11    -1     0     0     0     0  0.0000000000e+00  0.0000000000e+00  5.0000000000e+01  5.0000000000e+01  0.0000000000e+00 0. 9.
      -11    -1     0     0     0     0  0.0000000000e+00  0.0000000000e+00 -5.0000000000e+01  5.0000000000e+01  0.0000000000e+00 0. 9.
       23     2     1     2     0     0  0.0000000000e+00  0.0000000000e+00  0.0000000000e+00  1.0000000000e+02  1.0000000000e+02 0. 9.
        2     1     3     0   101     0  8.3980771488e+00 -1.4777992804e+01  4.7020998808e+01  5.0000000000e+01  3.3000000000e-01 0. 9.
       -2     1     3     0     0   101 -8.3980771488e+00  1.4777992804e+01 -4.7020998808e+01  5.0000000000e+01  3.3000000000e-01 0. 9.
#pdf   11  -11  1.000000e+00  1.000000e+00  1.000000e+02  1.000000e+00  1.000000e+00
</event>
<event>
     5  9999  1.000000e+00  1.000000e+02  7.825693e-03  1.281252e-01
       11    -1     0     0     0     0  0.0000000000e+00  0.0000000000e+00  5.0000000000e+01  5.0000000000e+01  0.0000000000e+00 0. 9.
      -11    -1     0     0     0     0  0.0000000000e+00  0.0000000000e+00 -5.0000000000e+01  5.0000000000e+01  0.0000000000e+00 0. 9.
       23     2     1     2     0     0  0.0000000000e+00  0.0000000000e+00  0.0000000000e+00  1.0000000000e+02  1.0000000000e+02 0. 9.
        2     1     3     0   101     0 -2.8796354617e+01  3.7695094812e+01  1.5803192331e+01  5.0000000000e+01  3.3000000000e-01 0. 9.
       -2     1     3     0     0   101  2.8796354617e+01 -3.7695094812e+01 -1.5803192331e+01  5.0000000000e+01  3.3000000000e-01 0. 9.
#pdf   11  -11  1.000000e+00  1.000000e+00  1.000000e+02  1.000000e+00  1.000000e+00
</event>
<event>
     5  9999  1.000000e+00  1.000000e+02  7.825693e-03  1.281252e-01
       11    -1     0     0     0     0  0.0000000000e+00  0.0000000000e+00  5.0000000000e+01  5.0000000000e+01  0.0000000000e+00 0. 9.
      -11    -1     0     0     0     0  0.0000000000e+00  0.0000000000e+00 -5.0000000000e+01  5.0000000000e+01  0.0000000000e+00 0. 9.
       23     2     1     2     0     0  0.0000000000e+00  0.0000000000e+00  0.0000000000e+00  1.0000000000e+02  1.0000000000e+02 0. 9.
        2     1     3     0   101     0 -5.5181324847e+00 -3.7151298466e+00 -4.9554405698e+01  5.0000000000e+01  3.3000000000e-01 0. 9.
       -2     1     3     0     0   101  5.5181324847e+00  3.7151298466e+00  4.9554405698e+01  5.0000000000e+01  3.3000000000e-01 0. 9.
#pdf   11  -11  1.000000e+00  1.000000e+00  1.000000e+02  1.000000e+00  1.000000e+00
</event>
<event>
     5  9999  1.000000e+00  1.000000e+02  7.825693e-03  1.281252e-01
       11    -1     0     0     0     0  0.0000000000e+00  0.0000000000e+00  5.0000000000e+01  5.0000000000e+01  0.0000000000e+00 0. 9.
      -11    -1     0     0     0     0  0.0000000000e+00  0.0000000000e+00 -5.0000000000e+01  5.0000000000e+01  0.0000000000e+00 0. 9.
       23     2     1     2     0     0  0.0000000000e+00  0.0000000000e+00  0.0000000000e+00  1.0000000000e+02  1.0000000000e+02 0. 9.
        2     1     3     0   101     0  4.6872871527e+01  1.4253936986e+01  9.9824994452e+00  5.0000000000e+01  3.3000000000e-01 0. 9.
       -2     1     3     0     0   101 -4.6872871527e+01 -1.4253936986e+01 -9.9824994452e+00  5.0000000000e+01  3.3000000000e-01 0. 9.
#pdf   11  -11  1.000000e+00  1.000000e+00  1.000000e+02  1.000000e+00  1.000000e+00
</event>
<event>
     5  9999  1.000000e+00  1.000000e+02  7.825693e-03  1.281252e-01
       11    -1     0     0     0     0  0.0000000000e+00  0.0000000000e+00  5.0000000000e+01  5.0000000000e+01  0.0000000000e+00 0. 9.
      -11    -1     0     0     0     0  0.0000000000e+00  0.0000000000e+00 -5.0000000000e+01  5.0000000000e+01  0.0000000000e+00 0. 9.
       23     2     1     2     0     0  0.0000000000e+00  0.0000000000e+00  0.0000000000e+00  1.0000000000e+02  1.0000000000e+02 0. 9.
        2     1     3     0   101     0  4.7203012878e+00 -3.5215410833e+01  3.5177900671e+01  5.0000000000e+01  3.3000000000e-01 0. 9.
       -2     1     3     0     0   101 -4.7203012878e+00  3.5215410833e+01 -3.5177900671e+01  5.0000000000e+01  3.3000000000e-01 0. 9.
#pdf   11  -11  1.000000e+00  1.000000e+00  1.000000e+02  1.000000e+00  1.000000e+00
</event>
<event>
     5  9999  1.000000e+00  1.000000e+02  7.825693e-03  1.281252e-01
       11    -1     0     0     0     0  0.0000000000e+00  0.0000000000e+00  5.0000000000e+01  5.0000000000e+01  0.0000000000e+00 0. 9.
      -11    -1     0     0     0     0  0.0000000000e+00  0.0000000000e+00 -5.0000000000e+01  5.0000000000e+01  0.0000000000e+00 0. 9.
       23     2     1     2     0     0  0.0000000000e+00  0.0000000000e+00  0.0000000000e+00  1.0000000000e+02  1.0000000000e+02 0. 9.
        2     1     3     0   101     0 -4.2210603468e+00 -2.2169463510e+01  4.4616013238e+01  5.0000000000e+01  3.3000000000e-01 0. 9.
       -2     1     3     0     0   101  4.2210603468e+00  2.2169463510e+01 -4.4616013238e+01  5.0000000000e+01  3.3000000000e-01 0. 9.
#pdf   11  -11  1.000000e+00  1.000000e+00  1.000000e+02  1.000000e+00  1.000000e+00
</event>
<event>
     5  9999  1.000000e+00  1.000000e+02  7.825693e-03  1.281252e-01
       11    -1     0     0     0     0  0.0000000000e+00  0.0000000000e+00  5.0000000000e+01  5.0000000000e+01  0.0000000000e+00 0. 9.
      -11    -1     0     0     0     0  0.0000000000e+00  0.0000000000e+00 -5.0000000000e+01  5.0000000000e+01  0.0000000000e+00 0. 9.
       23     2     1     2     0     0  0.0000000000e+00  0.0000000000e+00  0.0000000000e+00  1.0000000000e+02  1.0000000000e+02 0. 9.
        2     1     3     0   101     0  2.8786226020e+01 -1.2457668284e+01  3.8936496920e+01  5.0000000000e+01  3.3000000000e-01 0. 9.
       -2     1     3     0     0   101 -2.8786226020e+01  1.2457668284e+01 -3.8936496920e+01  5.0000000000e+01  3.3000000000e-01 0. 9.
#pdf   11  -11  1.000000e+00  1.000000e+00  1.000000e+02  1.000000e+00  1.000000e+00
</event>
<event>
     5  9999  1.000000e+00  1.000000e+02  7.825693e-03  1.281252e-01
       11    -1     0     0     0     0  0.0000000000e+00  0.0000000000e+00  5.0000000000e+01  5.0000000000e+01  0.0000000000e+00 0. 9.
      -11    -1     0     0     0     0  0.0000000000e+00  0.0000000000e+00 -5.0000000000e+01  5.0000000000e+01  0.0000000000e+00 0. 9.
       23     2     1     2     0     0  0.0000000000e+00  0.0000000000e+00  0.0000000000e+00  1.0000000000e+02  1.0000000000e+02 0. 9.
        2     1     3     0   101     0 -2.0282605904e+01 -3.1240576948e+01  3.3354660089e+01  5.0000000000e+01  3.3000000000e-01 0. 9.
       -2     1     3     0     0   101  2.0282605904e+01  3.1240576948e+01 -3.3354660089e+01  5.0000000000e+01  3.3000000000e-01 0. 9.
#pdf   11  -11  1.000000e+00  1.000000e+00  1.000000e+02  1.000000e+00  1.000000e+00
</event>
<event>
     5  9999  1.000000e+00  1.000000e+02  7.825693e-03  1.281252e-01
       11    -1     0     0     0     0  0.0000000000e+00  0.0000000000e+00  5.0000000000e+01  5.0000000000e+01  0.0000000000e+00 0. 9.
      -11    -1     0     0     0     0  0.0000000000e+00  0.0000000000e+00 -5.0000000000e+01  5.0000000000e+01  0.0000000000e+00 0. 9.
       23     2     1     2     0     0  0.0000000000e+00  0.0000000000e+00  0.0000000000e+00  1.0000000000e+02  1.0000000000e+02 0. 9.
        2     1     3     0   101     0  7.9878084665e-01  1.0345628646e+01 -4.8910336505e+01  5.0000000000e+01  3.3000000000e-01 0. 9.
       -2     1     3     0     0   101 -7.9878084665e-01 -1.0345628646e+01  4.8910336505e+01  5.0000000000e+01  3.3000000000e-01 0. 9.
#pdf   11  -11  1.000000e+00  1.000000e+00  1.000000e+02  1.000000e+00  1.000000e+00
</event>
<event>
     5  9999  1.000000e+00  1.000000e+02  7.825693e-03  1.281252e-01
       11    -1     0     0     0     0  0.0000000000e+00  0.0000000000e+00  5.0000000000e+01  5.0000000000e+01  0.0000000000e+00 0. 9.
      -11    -1     0     0     0     0  0.0000000000e+00  0.0000000000e+00 -5.0000000000e+01  5.0000000000e+01  0.0000000000e+00 0. 9.
       23     2     1     2     0     0  0.0000000000e+00  0.0000000000e+00  0.0000000000e+00  1.0000000000e+02  1.0000000000e+02 0. 9.
        2     1     3     0   101     0  3.6031732934e+01  3.1969812704e+01  1.3399119277e+01  5.0000000000e+01  3.3000000000e-01 0. 9.
       -2     1     3     0     0   101 -3.6031732934e+01 -3.1969812704e+01 -1.3399119277e+01  5.0000000000e+01  3.3000000000e-01 0. 9.
#pdf   11  -11  1.000000e+00  1.000000e+00  1.000000e+02  1.000000e+00  1.000000e+00
</event>
<event>
     5  9999  1.000000e+00  1.000000e+02  7.825693e-03  1.281252e-01
       11    -1     0     0     0     0  0.0000000000e+00  0.0000000000e+00  5.0000000000e+01  5.0000000000e+01  0.0000000000e+00 0. 9.
      -11    -1     0     0     0     0  0.0000000000e+00  0.0000000000e+00 -5.0000000000e+01  5.0000000000e+01  0.0000000000e+00 0. 9.
       23     2     1     2     0     0  0.0000000000e+00  0.0000000000e+00  0.0000000000e+00  1.0000000000e+02  1.0000000000e+02 0. 9.
        2     1     3     0   101     0  4.2418013420e+01  7.4971000276e+00  2.5384970527e+01  5.0000000000e+01  3.3000000000e-01 0. 9.
       -2     1     3     0     0   101 -4.2418013420e+01 -7.4971000276e+00 -2.5384970527e+01  5.0000000000e+01  3.3000000000e-01 0. 9.
#pdf   11  -11  1.000000e+00  1.000000e+00  1.000000e+02  1.000000e+00  1.000000e+00
</event>
<event>
     5  9999  1.000000e+00  1.000000e+02  7.825693e-03  1.281252e-01
       11    -1     0     0     0     0  0.0000000000e+00  0.0000000000e+00  5.0000000000e+01  5.0000000000e+01  0.0000000000e+00 0. 9.
      -11    -1     0     0     0     0  0.0000000000e+00  0.0000000000e+00 -5.0000000000e+01  5.0000000000e+01  0.0000000000e+00 0. 9.
       23     2     1     2     0     0  0.0000000000e+00  0.0000000000e+00  0.0000000000e+00  1.0000000000e+02  1.0000000000e+02 0. 9.
        2     1     3     0   101     0  1.4316522751e+01 -3.2227727468e+01  3.5444348754e+01  5.0000000000e+01  3.3000000000e-01 0. 9.
       -2     1     3     0     0   101 -1.4316522751e+01  3.2227727468e+01 -3.5444348754e+01  5.0000000000e+01  3.3000000000e-01 0. 9.
#pdf   11  -11  1.000000e+00  1.000000e+00  1.000000e+02  1.000000e+00  1.000000e+00
</event>
<event>
     5  9999  1.000000e+00  1.000000e+02  7.825693e-03  1.281252e-01
       11    -1     0     0     0     0  0.0000000000e+00  0.0000000000e+00  5.0000000000e+01  5.0000000000e+01  0.0000000000e+00 0. 9.
      -11    -1     0     0     0     0  0.0000000000e+00  0.0000000000e+00 -5.0000000000e+01  5.0000000000e+01  0.0000000000e+00 0. 9.
       23     2     1     2     0     0  0.0000000000e+00  0.0000000000e+00  0.0000000000e+00  1.0000000000e+02  1.0000000000e+02 0. 9.
        2     1     3     0   101     0 -8.2631640189e+00 -1.4533179456e+01  4.7121098409e+01  5.0000000000e+01  3.3000000000e-01 0. 9.
       -2     1     3     0     0   101  8.2631640189e+00  1.4533179456e+01 -4.7121098409e+01  5.0000000000e+01  3.3000000000e-01 0. 9.
#pdf   11  -11  1.000000e+00  1.000000e+00  1.000000e+02  1.000000e+00  1.000000e+00
</event>
<event>
     5  9999  1.000000e+00  1.000000e+02  7.825693e-03  1.281252e-01
       11    -1     0     0     0     0  0.0000000000e+00  0.0000000000e+00  5.0000000000e+01  5.0000000000e+01  0.0000000000e+00 0. 9.
      -11    -1     0     0     0     0  0.0000000000e+00  0.0000000000e+00 -5.0000000000e+01  5.0000000000e+01  0.0000000000e+00 0. 9.
       23     2     1     2     0     0  0.0000000000e+00  0.0000000000e+00  0.0000000000e+00  1.0000000000e+02  1.0000000000e+02 0. 9.
        2     1     3     0   101     0  1.2434384067e+00 -2.2017542661e+00  4.9934930050e+01  5.0000000000e+01  3.3000000000e-01 0. 9.
       -2     1     3     0     0   101 -1.2434384067e+00  2.2017542661e+00 -4.9934930050e+01  5.0000000000e+01  3.3000000000e-01 0. 9.
#pdf   11  -11  1.000000e+00  1.000000e+00  1.000000e+02  1.000000e+00  1.000000e+00
</event>
<event>
     5  9999  1.000000e+00  1.000000e+02  7.825693e-03  1.281252e-01
       11    -1     0     0     0     0  0.0000000000e+00  0.0000000000e+00  5.0000000000e+01  5.0000000000e+01  0.0000000000e+00 0. 9.
      -11    -1     0     0     0     0  0.0000000000e+00  0.0000000000e+00 -5.0000000000e+01  5.0000000000e+01  0.0000000000e+00 0. 9.
       23     2     1     2     0     0  0.0000000000e+00  0.0000000000e+00  0.0000000000e+00  1.0000000000e+02  1.0000000000e+02 0. 9.
        2     1     3     0   101     0 -3.5051663370e+01 -3.4742962820e+01  8.0123984870e+00  5.0000000000e+01  3.3000000000e-01 0. 9.
       -2     1     3     0     0   101  3.5051663370e+01  3.4742962820e+01 -8.0123984870e+00  5.0000000000e+01  3.3000000000e-01 0. 9.
#pdf   11  -11  1.000000e+00  1.000000e+00  1.000000e+02  1.000000e+00  1.000000e+00
</event>
<event>
     5  9999  1.000000e+00  1.000000e+02  7.825693e-03  1.281252e-01
       11    -1     0     0     0     0  0.0000000000e+00  0.0000000000e+00  5.0000000000e+01  5.0000000000e+01  0.0000000000e+00 0. 9.
      -11    -1     0     0     0     0  0.0000000000e+00  0.0000000000e+00 -5.0000000000e+01  5.0000000000e+01  0.0000000000e+00 0. 9.
       23     2     1     2     0     0  0.0000000000e+00  0.0000000000e+00  0.0000000000e+00  1.0000000000e+02  1.0000000000e+02 0. 9.
        2     1     3     0   101     0 -3.8104035042e+00 -8.0903085321e+00  4.9192670521e+01  5.0000000000e+01  3.3000000000e-01 0. 9.
       -2     1     3     0     0   101  3.8104035042e+00  8.0903085321e+00 -4.9192670521e+01  5.0000000000e+01  3.3000000000e-01 0. 9.
#pdf   11  -11  1.000000e+00  1.000000e+00  1.000000e+02  1.000000e+00  1.000000e+00
</event>
<event>
     5  9999  1.000000e+00  1.000000e+02  7.825693e-03  1.281252e-01
       11    -1     0     0     0     0  0.0000000000e+00  0.0000000000e+00  5.0000000000e+01  5.0000000000e+01  0.0000000000e+00 0. 9.
      -11    -1     0     0     0     0  0.0000000000e+00  0.0000000000e+00 -5.0000000000e+01  5.0000000000e+01  0.0000000000e+00 0. 9.
       23     2     1     2     0     0  0.0000000000e+00  0.0000000000e+00  0.0000000000e+00  1.0000000000e+02  1.0000000000e+02 0. 9.
        2     1     3     0   101     0 -1.6787993453e+01  4.6316681637e+01  8.5334270910e+00  5.0000000000e+01  3.3000000000e-01 0. 9.
       -2     1     3     0     0   101  1.6787993453e+01 -4.6316681637e+01 -8.5334270910e+00  5.0000000000e+01  3.3000000000e-01 0. 9.
#pdf   11  -11  1.000000e+00  1.000000e+00  1.000000e+02  1.000000e+00  1.000000e+00
</event>
<event>
     5  9999  1.000000e+00  1.000000e+02  7.825693e-03  1.281252e-01
       11    -1     0     0     0     0  0.0000000000e+00  0.0000000000e+00  5.0000000000e+01  5.0000000000e+01  0.0000000000e+00 0. 9.
      -11    -1     0     0     0     0  0.0000000000e+00  0.0000000000e+00 -5.0000000000e+01  5.0000000000e+01  0.0000000000e+00 0. 9.
       23     2     1     2     0     0  0.0000000000e+00  0.0000000000e+00  0.0000000000e+00  1.0000000000e+02  1.0000000000e+02 0. 9.
        2     1     3     0   101     0  4.0210368579e+01 -1.7011044221e-01  2.9715121086e+01  5.0000000000e+01  3.3000000000e-01 0. 9.
       -2     1     3     0     0   101 -4.0210368579e+01  1.7011044221e-01 -2.9715121086e+01  5.0000000000e+01  3.3000000000e-01 0. 9.
#pdf   11  -11  1.000000e+00  1.000000e+00  1.000000e+02  1.000000e+00  1.000000e+00
</event>
<event>
     5  9999  1.000000e+00  1.000000e+02  7.825693e-03  1.281252e-01
       11    -1     0     0     0     0  0.0000000000e+00  0.0000000000e+00  5.0000000000e+01  5.0000000000e+01  0.0000000000e+00 0. 9.
      -11    -1     0     0     0     0  0.0000000000e+00  0.0000000000e+00 -5.0000000000e+01  5.0000000000e+01  0.0000000000e+00 0. 9.
       23     2     1     2     0     0  0.0000000000e+00  0.0000000000e+00  0.0000000000e+00  1.0000000000e+02  1.0000000000e+02 0. 9.
        2     1     3     0   101     0 -1.8238265187e+01  2.7004853318e+01  3.7920900309e+01  5.0000000000e+01  3.3000000000e-01 0. 9.
       -2     1     3     0     0   101  1.8238265187e+01 -2.7004853318e+01 -3.7920900309e+01  5.0000000000e+01  3.3000000000e-01 0. 9.
#pdf   11  -11  1.000000e+00  1.000000e+00  1.000000e+02  1.000000e+00  1.000000e+00
</event>
<event>
     5  9999  1.000000e+00  1.000000e+02  7.825693e-03  1.281252e-01
       11    -1     0     0     0     0  0.0000000000e+00  0.0000000000e+00  5.0000000000e+01  5.0000000000e+01  0.0000000000e+00 0. 9.
      -11    -1     0     0     0     0  0.0000000000e+00  0.0000000000e+00 -5.0000000000e+01  5.0000000000e+01  0.0000000000e+00 0. 9.
       23     2     1     2     0     0  0.0000000000e+00  0.0000000000e+00  0.0000000000e+00  1.0000000000e+02  1.0000000000e+02 0. 9.
        2     1     3     0   101     0 -7.6560989053e+00 -1.6569039042e+01  4.6548278108e+01  5.0000000000e+01  3.3000000000e-01 0. 9.
       -2     1     3     0     0   101  7.6560989053e+00  1.6569039042e+01 -4.6548278108e+01  5.0000000000e+01  3.3000000000e-01 0. 9.
#pdf   11  -11  1.000000e+00  1.000000e+00  1.000000e+02  1.000000e+00  1.000000e+00
</event>
<event>
     5  9999  1.000000e+00  1.000000e+02  7.825693e-03  1.281252e-01
       11    -1     0     0     0     0  0.0000000000e+00  0.0000000000e+00  5.0000000000e+01  5.0000000000e+01  0.0000000000e+00 0. 9.
      -11    -1     0     0     0     0  0.0000000000e+00  0.0000000000e+00 -5.0000000000e+01  5.0000000000e+01  0.0000000000e+00 0. 9.
       23     2     1     2     0     0  0.0000000000e+00  0.0000000000e+00  0.0000000000e+00  1.0000000000e+02  1.0000000000e+02 0. 9.
        2     1     3     0   101     0 -4.8187659956e+01 -1.0892349854e+01  7.6939744356e+00  5.0000000000e+01  3.3000000000e-01 0. 9.
       -2     1     3     0     0   101  4.8187659956e+01  1.0892349854e+01 -7.6939744356e+00  5.0000000000e+01  3.3000000000e-01 0. 9.
#pdf   11  -11  1.000000e+00  1.000000e+00  1.000000e+02  1.000000e+00  1.000000e+00
</event>
<event>
     5  9999  1.000000e+00  1.000000e+02  7.825693e-03  1.281252e-01
       11    -1     0     0     0     0  0.0000000000e+00  0.0000000000e+00  5.0000000000e+01  5.0000000000e+01  0.0000000000e+00 0. 9.
      -11    -1     0     0     0     0  0.0000000000e+00  0.0000000000e+00 -5.0000000000e+01  5.0000000000e+01  0.0000000000e+00 0. 9.
       23     2     1     2     0     0  0.0000000000e+00  0.0000000000e+00  0.0000000000e+00  1.0000000000e+02  1.0000000000e+02 0. 9.
        2     1     3     0   101     0  2.5404329634e+00 -4.9061621258e+00  4.9692724554e+01  5.0000000000e+01  3.3000000000e-01 0. 9.
       -2     1     3     0     0   101 -2.5404329634e+00  4.9061621258e+00 -4.9692724554e+01  5.0000000000e+01  3.3000000000e-01 0. 9.
#pdf   11  -11  1.000000e+00  1.000000e+00  1.000000e+02  1.000000e+00  1.000000e+00
</event>
<event>
     5  9999  1.000000e+00  1.000000e+02  7.825693e-03  1.281252e-01
       11    -1     0     0     0     0  0.0000000000e+00  0.0000000000e+00  5.0000000000e+01  5.0000000000e+01  0.0000000000e+00 0. 9.
      -11    -1     0     0     0     0  0.0000000000e+00  0.0000000000e+00 -5.0000000000e+01  5.0000000000e+01  0.0000000000e+00 0. 9.
       23     2     1     2     0     0  0.0000000000e+00  0.0000000000e+00  0.0000000000e+00  1.0000000000e+02  1.0000000000e+02 0. 9.
        2     1     3     0   101     0  1.0113744656e+01 -2.4702516089e+01 -4.2277523200e+01  5.0000000000e+01  3.3000000000e-01 0. 9.
       -2     1     3     0     0   101 -1.0113744656e+01  2.4702516089e+01  4.2277523200e+01  5.0000000000e+01  3.3000000000e-01 0. 9.
#pdf   11  -11  1.000000e+00  1.000000e+00  1.000000e+02  1.000000e+00  1.000000e+00
</event>
<event>
     5  9999  1.000000e+00  1.000000e+02  7.825693e-03  1.281252e-01
       11    -1     0     0     0     0  0.0000000000e+00  0.0000000000e+00  5.0000000000e+01  5.0000000000e+01  0.0000000000e+00 0. 9.
      -11    -1     0     0     0     0  0.0000000000e+00  0.0000000000e+00 -5.0000000000e+01  5.0000000000e+01  0.0000000000e+00 0. 9.
       23     2     1     2     0     0  0.0000000000e+00  0.0000000000e+00  0.0000000000e+00  1.0000000000e+02  1.0000000000e+02 0. 9.
        2     1     3     0   101     0 -3.4725155422e+01  4.2007119317e+00 -3.5726862445e+01  5.0000000000e+01  3.3000000000e-01 0. 9.
       -2     1     3     0     0   101  3.4725155422e+01 -4.2007119317e+00  3.5726862445e+01  5.0000000000e+01  3.3000000000e-01 0. 9.
#pdf   11  -11  1.000000e+00  1.000000e+00  1.000000e+02  1.000000e+00  1.000000e+00
</event>
<event>
     5  9999  1.000000e+00  1.000000e+02  7.825693e-03  1.281252e-01
       11    -1     0     0     0     0  0.0000000000e+00  0.0000000000e+00  5.0000000000e+01  5.0000000000e+01  0.0000000000e+00 0. 9.
      -11    -1     0     0     0     0  0.0000000000e+00  0.0000000000e+00 -5.0000000000e+01  5.0000000000e+01  0.0000000000e+00 0. 9.
       23     2     1     2     0     0  0.0000000000e+00  0.0000000000e+00  0.0000000000e+00  1.0000000000e+02  1.0000000000e+02 0. 9.
        2     1     3     0   101     0  2.3371124047e+01  4.2043368470e+01 -1.3639531827e+01  5.0000000000e+01  3.3000000000e-01 0. 9.
       -2     1     3     0     0   101 -2.3371124047e+01 -4.2043368470e+01  1.3639531827e+01  5.0000000000e+01  3.3000000000e-01 0. 9.
#pdf   11  -11  1.000000e+00  1.000000e+00  1.000000e+02  1.000000e+00  1.000000e+00
</event>
<event>
     5  9999  1.000000e+00  1.000000e+02  7.825693e-03  1.281252e-01
       11    -1     0     0     0     0  0.0000000000e+00  0.0000000000e+00  5.0000000000e+01  5.0000000000e+01  0.0000000000e+00 0. 9.
      -11    -1     0     0     0     0  0.0000000000e+00  0.0000000000e+00 -5.0000000000e+01  5.0000000000e+01  0.0000000000e+00 0. 9.
       23     2     1     2     0     0  0.0000000000e+00  0.0000000000e+00  0.0000000000e+00  1.0000000000e+02  1.0000000000e+02 0. 9.
        2     1     3     0   101     0 -1.8120461080e+01  4.6239613010e+01 -5.7825754575e+00  5.0000000000e+01  3.3000000000e-01 0. 9.
       -2     1     3     0     0   101  1.8120461080e+01 -4.6239613010e+01  5.7825754575e+00  5.0000000000e+01  3.3000000000e-01 0. 9.
#pdf   11  -11  1.000000e+00  1.000000e+00  1.000000e+02  1.000000e+00  1.000000e+00
</event>
<event>
     5  9999  1.000000e+00  1.000000e+02  7.825693e-03  1.281252e-01
       11    -1     0     0     0     0  0.0000000000e+00  0.0000000000e+00  5.0000000000e+01  5.0000000000e+01  0.0000000000e+00 0. 9.
      -11    -1     0     0     0     0  0.0000000000e+00  0.0000000000e+00 -5.0000000000e+01  5.0000000000e+01  0.0000000000e+00 0. 9.
       23     2     1     2     0     0  0.0000000000e+00  0.0000000000e+00  0.0000000000e+00  1.0000000000e+02  1.0000000000e+02 0. 9.
        2     1     3     0   101     0  2.5921000063e+01  3.7120816291e+01 -2.1214095635e+01  5.0000000000e+01  3.3000000000e-01 0. 9.
       -2     1     3     0     0   101 -2.5921000063e+01 -3.7120816291e+01  2.1214095635e+01  5.0000000000e+01  3.3000000000e-01 0. 9.
#pdf   11  -11  1.000000e+00  1.000000e+00  1.000000e+02  1.000000e+00  1.000000e+00
</event>
<event>
     5  9999  1.000000e+00  1.000000e+02  7.825693e-03  1.281252e-01
       11    -1     0     0     0     0  0.0000000000e+00  0.0000000000e+00  5.0000000000e+01  5.0000000000e+01  0.0000000000e+00 0. 9.
      -11    -1     0     0     0     0  0.0000000000e+00  0.0000000000e+00 -5.0000000000e+01  5.0000000000e+01  0.0000000000e+00 0. 9.
       23     2     1     2     0     0  0.0000000000e+00  0.0000000000e+00  0.0000000000e+00  1.0000000000e+02  1.0000000000e+02 0. 9.
        2     1     3     0   101     0 -1.3145232327e+01 -4.4890016653e+01  1.7662966114e+01  5.0000000000e+01  3.3000000000e-01 0. 9.
       -2     1     3     0     0   101  1.3145232327e+01  4.4890016653e+01 -1.7662966114e+01  5.0000000000e+01  3.3000000000e-01 0. 9.
#pdf   11  -11  1.000000e+00  1.000000e+00  1.000000e+02  1.000000e+00  1.000000e+00
</event>
<event>
     5  9999  1.000000e+00  1.000000e+02  7.825693e-03  1.281252e-01
       11    -1     0     0     0     0  0.0000000000e+00  0.0000000000e+00  5.0000000000e+01  5.0000000000e+01  0.0000000000e+00 0. 9.
      -11    -1     0     0     0     0  0.0000000000e+00  0.0000000000e+00 -5.0000000000e+01  5.0000000000e+01  0.0000000000e+00 0. 9.
       23     2     1     2     0     0  0.0000000000e+00  0.0000000000e+00  0.0000000000e+00  1.0000000000e+02  1.0000000000e+02 0. 9.
        2     1     3     0   101     0  1.2545119686e+01  4.5560472168e+01 -1.6332619137e+01  5.0000000000e+01  3.3000000000e-01 0. 9.
       -2     1     3     0     0   101 -1.2545119686e+01 -4.5560472168e+01  1.6332619137e+01  5.0000000000e+01  3.3000000000e-01 0. 9.
#pdf   11  -11  1.000000e+00  1.000000e+00  1.000000e+02  1.000000e+00  1.000000e+00
</event>
<event>
     5  9999  1.000000e+00  1.000000e+02  7.825693e-03  1.281252e-01
       11    -1     0     0     0     0  0.0000000000e+00  0.0000000000e+00  5.0000000000e+01  5.0000000000e+01  0.0000000000e+00 0. 9.
      -11    -1     0     0     0     0  0.0000000000e+00  0.0000000000e+00 -5.0000000000e+01  5.0000000000e+01  0.0000000000e+00 0. 9.
       23     2     1     2     0     0  0.0000000000e+00  0.0000000000e+00  0.0000000000e+00  1.0000000000e+02  1.0000000000e+02 0. 9.
        2     1     3     0   101     0  6.2176776925e+00 -4.5121309124e+01  2.0622779810e+01  5.0000000000e+01  3.3000000000e-01 0. 9.
       -2     1     3     0     0   101 -6.2176776925e+00  4.5121309124e+01 -2.0622779810e+01  5.0000000000e+01  3.3000000000e-01 0. 9.
#pdf   11  -11  1.000000e+00  1.000000e+00  1.000000e+02  1.000000e+00  1.000000e+00
</event>
<event>
     5  9999  1.000000e+00  1.000000e+02  7.825693e-03  1.281252e-01
       11    -1     0     0     0     0  0.0000000000e+00  0.0000000000e+00  5.0000000000e+01  5.0000000000e+01  0.0000000000e+00 0. 9.
      -11    -1     0     0     0     0  0.0000000000e+00  0.0000000000e+00 -5.0000000000e+01  5.0000000000e+01  0.0000000000e+00 0. 9.
       23     2     1     2     0     0  0.0000000000e+00  0.0000000000e+00  0.0000000000e+00  1.0000000000e+02  1.0000000000e+02 0. 9.
        2     1     3     0   101     0  2.7542376934e+01 -4.1291775592e+01 -6.0247689864e+00  5.0000000000e+01  3.3000000000e-01 0. 9.
       -2     1     3     0     0   101 -2.7542376934e+01  4.1291775592e+01  6.0247689864e+00  5.0000000000e+01  3.3000000000e-01 0. 9.
#pdf   11  -11  1.000000e+00  1.000000e+00  1.000000e+02  1.000000e+00  1.000000e+00
</event>
<event>
     5  9999  1.000000e+00  1.000000e+02  7.825693e-03  1.281252e-01
       11    -1     0     0     0     0  0.0000000000e+00  0.0000000000e+00  5.0000000000e+01  5.0000000000e+01  0.0000000000e+00 0. 9.
      -11    -1     0     0     0     0  0.0000000000e+00  0.0000000000e+00 -5.0000000000e+01  5.0000000000e+01  0.0000000000e+00 0. 9.
       23     2     1     2     0     0  0.0000000000e+00  0.0000000000e+00  0.0000000000e+00  1.0000000000e+02  1.0000000000e+02 0. 9.
        2     1     3     0   101     0 -2.7409375994e+01  1.7123549895e+01  3.8149721448e+01  5.0000000000e+01  3.3000000000e-01 0. 9.
       -2     1     3     0     0   101  2.7409375994e+01 -1.7123549895e+01 -3.8149721448e+01  5.0000000000e+01  3.3000000000e-01 0. 9.
#pdf   11  -11  1.000000e+00  1.000000e+00  1.000000e+02  1.000000e+00  1.000000e+00
</event>
<event>
     5  9999  1.000000e+00  1.000000e+02  7.825693e-03  1.281252e-01
       11    -1     0     0     0     0  0.0000000000e+00  0.0000000000e+00  5.0000000000e+01  5.0000000000e+01  0.0000000000e+00 0. 9.
      -11    -1     0     0     0     0  0.0000000000e+00  0.0000000000e+00 -5.0000000000e+01  5.0000000000e+01  0.0000000000e+00 0. 9.
       23     2     1     2     0     0  0.0000000000e+00  0.0000000000e+00  0.0000000000e+00  1.0000000000e+02  1.0000000000e+02 0. 9.
        2     1     3     0   101     0  2.2333930244e+01  4.7152079959e+00  4.4484305923e+01  5.0000000000e+01  3.3000000000e-01 0. 9.
       -2     1     3     0     0   101 -2.2333930244e+01 -4.7152079959e+00 -4.4484305923e+01  5.0000000000e+01  3.3000000000e-01 0. 9.
#pdf   11  -11  1.000000e+00  1.000000e+00  1.000000e+02  1.000000e+00  1.000000e+00
</event>
<event>
     5  9999  1.000000e+00  1.000000e+02  7.825693e-03  1.281252e-01
       11    -1     0     0     0     0  0.0000000000e+00  0.0000000000e+00  5.0000000000e+01  5.0000000000e+01  0.0000000000e+00 0. 9.
      -11    -1     0     0     0     0  0.0000000000e+00  0.0000000000e+00 -5.0000000000e+01  5.0000000000e+01  0.0000000000e+00 0. 9.
       23     2     1     2     0     0  0.0000000000e+00  0.0000000000e+00  0.0000000000e+00  1.0000000000e+02  1.0000000000e+02 0. 9.
        2     1     3     0   101     0  2.2416437183e+01 -3.9111074000e+01  2.1626796679e+01  5.0000000000e+01  3.3000000000e-01 0. 9.
       -2     1     3     0     0   101 -2.2416437183e+01  3.9111074000e+01 -2.1626796679e+01  5.0000000000e+01  3.3000000000e-01 0. 9.
#pdf   11  -11  1.000000e+00  1.000000e+00  1.000000e+02  1.000000e+00  1.000000e+00
</event>
<event>
     5  9999  1.000000e+00  1.000000e+02  7.825693e-03  1.281252e-01
       11    -1     0     0     0     0  0.0000000000e+00  0.0000000000e+00  5.0000000000e+01  5.0000000000e+01  0.0000000000e+00 0. 9.
      -11    -1     0     0     0     0  0.0000000000e+00  0.0000000000e+00 -5.0000000000e+01  5.0000000000e+01  0.0000000000e+00 0. 9.
       23     2     1     2     0     0  0.0000000000e+00  0.0000000000e+00  0.0000000000e+00  1.0000000000e+02  1.0000000000e+02 0. 9.
        2     1     3     0   101     0 -4.8354389901e+00 -4.0834440588e+01  2.8443946485e+01  5.0000000000e+01  3.3000000000e-01 0. 9.
       -2     1     3     0     0   101  4.8354389901e+00  4.0834440588e+01 -2.8443946485e+01  5.0000000000e+01  3.3000000000e-01 0. 9.
#pdf   11  -11  1.000000e+00  1.000000e+00  1.000000e+02  1.000000e+00  1.000000e+00
</event>
<event>
     5  9999  1.000000e+00  1.000000e+02  7.825693e-03  1.281252e-01
       11    -1     0     0     0     0  0.0000000000e+00  0.0000000000e+00  5.0000000000e+01  5.0000000000e+01  0.0000000000e+00 0. 9.
      -11    -1     0     0     0     0  0.0000000000e+00  0.0000000000e+00 -5.0000000000e+01  5.0000000000e+01  0.0000000000e+00 0. 9.
       23     2     1     2     0     0  0.0000000000e+00  0.0000000000e+00  0.0000000000e+00  1.0000000000e+02  1.0000000000e+02 0. 9.
        2     1     3     0   101     0 -1.4219737835e+01  4.5567683639e+01 -1.4875360960e+01  5.0000000000e+01  3.3000000000e-01 0. 9.
       -2     1     3     0     0   101  1.4219737835e+01 -4.5567683639e+01  1.4875360960e+01  5.0000000000e+01  3.3000000000e-01 0. 9.
#pdf   11  -11  1.000000e+00  1.000000e+00  1.000000e+02  1.000000e+00  1.000000e+00
</event>
<event>
     5  9999  1.000000e+00  1.000000e+02  7.825693e-03  1.281252e-01
       11    -1     0     0     0     0  0.0000000000e+00  0.0000000000e+00  5.0000000000e+01  5.0000000000e+01  0.0000000000e+00 0. 9.
      -11    -1     0     0     0     0  0.0000000000e+00  0.0000000000e+00 -5.0000000000e+01  5.0000000000e+01  0.0000000000e+00 0. 9.
       23     2     1     2     0     0  0.0000000000e+00  0.0000000000e+00  0.0000000000e+00  1.0000000000e+02  1.0000000000e+02 0. 9.
        2     1     3     0   101     0  6.8329052644e-01  4.4194741639e+01  2.3371970937e+01  5.0000000000e+01  3.3000000000e-01 0. 9.
       -2     1     3     0     0   101 -6.8329052644e-01 -4.4194741639e+01 -2.3371970937e+01  5.0000000000e+01  3.3000000000e-01 0. 9.
#pdf   11  -11  1.000000e+00  1.000000e+00  1.000000e+02  1.000000e+00  1.000000e+00
</event>
<event>
     5  9999  1.000000e+00  1.000000e+02  7.825693e-03  1.281252e-01
       11    -1     0     0     0     0  0.0000000000e+00  0.0000000000e+00  5.0000000000e+01  5.0000000000e+01  0.0000000000e+00 0. 9.
      -11    -1     0     0     0     0  0.0000000000e+00  0.0000000000e+00 -5.0000000000e+01  5.0000000000e+01  0.0000000000e+00 0. 9.
       23     2     1     2     0     0  0.0000000000e+00  0.0000000000e+00  0.0000000000e+00  1.0000000000e+02  1.0000000000e+02 0. 9.
        2     1     3     0   101     0 -6.9870281896e+00 -2.3140572881e+01  4.3767412807e+01  5.0000000000e+01  3.3000000000e-01 0. 9.
       -2     1     3     0     0   101  6.9870281896e+00  2.3140572881e+01 -4.3767412807e+01  5.0000000000e+01  3.3000000000e-01 0. 9.
#pdf   11  -11  1.000000e+00  1.000000e+00  1.000000e+02  1.000000e+00  1.000000e+00
</event>
<event>
     5  9999  1.000000e+00  1.000000e+02  7.825693e-03  1.281252e-01
       11    -1     0     0     0     0  0.0000000000e+00  0.0000000000e+00  5.0000000000e+01  5.0000000000e+01  0.0000000000e+00 0. 9.
      -11    -1     0     0     0     0  0.0000000000e+00  0.0000000000e+00 -5.0000000000e+01  5.0000000000e+01  0.0000000000e+00 0. 9.
       23     2     1     2     0     0  0.0000000000e+00  0.0000000000e+00  0.0000000000e+00  1.0000000000e+02  1.0000000000e+02 0. 9.
        2     1     3     0   101     0  1.1072404207e+01 -4.6226208550e+01  1.5505824976e+01  5.0000000000e+01  3.3000000000e-01 0. 9.
       -2     1     3     0     0   101 -1.1072404207e+01  4.6226208550e+01 -1.5505824976e+01  5.0000000000e+01  3.3000000000e-01 0. 9.
#pdf   11  -11  1.000000e+00  1.000000e+00  1.000000e+02  1.000000e+00  1.000000e+00
</event>
<event>
     5  9999  1.000000e+00  1.000000e+02  7.825693e-03  1.281252e-01
       11    -1     0     0     0     0  0.0000000000e+00  0.0000000000e+00  5.0000000000e+01  5.0000000000e+01  0.0000000000e+00 0. 9.
      -11    -1     0     0     0     0  0.0000000000e+00  0.0000000000e+00 -5.0000000000e+01  5.0000000000e+01  0.0000000000e+00 0. 9.
       23     2     1     2     0     0  0.0000000000e+00  0.0000000000e+00  0.0000000000e+00  1.0000000000e+02  1.0000000000e+02 0. 9.
        2     1     3     0   101     0 -4.1079432210e+01 -3.1065771235e+00  2.8332323023e+01  5.0000000000e+01  3.3000000000e-01 0. 9.
       -2     1     3     0     0   101  4.1079432210e+01  3.1065771235e+00 -2.8332323023e+01  5.0000000000e+01  3.3000000000e-01 0. 9.
#pdf   11  -11  1.000000e+00  1.000000e+00  1.000000e+02  1.000000e+00  1.000000e+00
</event>
<event>
     5  9999  1.000000e+00  1.000000e+02  7.825693e-03  1.281252e-01
       11    -1     0     0     0     0  0.0000000000e+00  0.0000000000e+00  5.0000000000e+01  5.0000000000e+01  0.0000000000e+00 0. 9.
      -11    -1     0     0     0     0  0.0000000000e+00  0.0000000000e+00 -5.0000000000e+01  5.0000000000e+01  0.0000000000e+00 0. 9.
       23     2     1     2     0     0  0.0000000000e+00  0.0000000000e+00  0.0000000000e+00  1.0000000000e+02  1.0000000000e+02 0. 9.
        2     1     3     0   101     0 -5.3747346850e+00  4.6993769989e+01  1.6204595315e+01  5.0000000000e+01  3.3000000000e-01 0. 9.
       -2     1     3     0     0   101  5.3747346850e+00 -4.6993769989e+01 -1.6204595315e+01  5.0000000000e+01  3.3000000000e-01 0. 9.
#pdf   11  -11  1.000000e+00  1.000000e+00  1.000000e+02  1.000000e+00  1.000000e+00
</event>
<event>
     5  9999  1.000000e+00  1.000000e+02  7.825693e-03  1.281252e-01
       11    -1     0     0     0     0  0.0000000000e+00  0.0000000000e+00  5.0000000000e+01  5.0000000000e+01  0.0000000000e+00 0. 9.
      -11    -1     0     0     0     0  0.0000000000e+00  0.0000000000e+00 -5.0000000000e+01  5.0000000000e+01  0.0000000000e+00 0. 9.
       23     2     1     2     0     0  0.0000000000e+00  0.0000000000e+00  0.0000000000e+00  1.0000000000e+02  1.0000000000e+02 0. 9.
        2     1     3     0   101     0 -2.7565639698e+01  3.1218749394e+01  2.7666157925e+01  5.0000000000e+01  3.3000000000e-01 0. 9.
       -2     1     3     0     0   101  2.7565639698e+01 -3.1218749394e+01 -2.7666157925e+01  5.0000000000e+01  3.3000000000e-01 0. 9.
#pdf   11  -11  1.000000e+00  1.000000e+00  1.000000e+02  1.000000e+00  1.000000e+00
</event>
<event>
     5  9999  1.000000e+00  1.000000e+02  7.825693e-03  1.281252e-01
       11    -1     0     0     0     0  0.0000000000e+00  0.0000000000e+00  5.0000000000e+01  5.0000000000e+01  0.0000000000e+00 0. 9.
      -11    -1     0     0     0     0  0.0000000000e+00  0.0000000000e+00 -5.0000000000e+01  5.0000000000e+01  0.0000000000e+00 0. 9.
       23     2     1     2     0     0  0.0000000000e+00  0.0000000000e+00  0.0000000000e+00  1.0000000000e+02  1.0000000000e+02 0. 9.
        2     1     3     0   101     0  2.1986925024e+01  3.3361033847e+01  3.0058403961e+01  5.0000000000e+01  3.3000000000e-01 0. 9.
       -2     1     3     0     0   101 -2.1986925024e+01 -3.3361033847e+01 -3.0058403961e+01  5.0000000000e+01  3.3000000000e-01 0. 9.
#pdf   11  -11  1.000000e+00  1.000000e+00  1.000000e+02  1.000000e+00  1.000000e+00
</event>
<event>
     5  9999  1.000000e+00  1.000000e+02  7.825693e-03  1.281252e-01
       11    -1     0     0     0     0  0.0000000000e+00  0.0000000000e+00  5.0000000000e+01  5.0000000000e+01  0.0000000000e+00 0. 9.
      -11    -1     0     0     0     0  0.0000000000e+00  0.0000000000e+00 -5.0000000000e+01  5.0000000000e+01  0.0000000000e+00 0. 9.
       23     2     1     2     0     0  0.0000000000e+00  0.0000000000e+00  0.0000000000e+00  1.0000000000e+02  1.0000000000e+02 0. 9.
        2     1     3     0   101     0 -7.2466231232e-02 -2.8248788591e+01  4.1253991222e+01  5.0000000000e+01  3.3000000000e-01 0. 9.
       -2     1     3     0     0   101  7.2466231232e-02  2.8248788591e+01 -4.1253991222e+01  5.0000000000e+01  3.3000000000e-01 0. 9.
#pdf   11  -11  1.000000e+00  1.000000e+00  1.000000e+02  1.000000e+00  1.000000e+00
</event>
<event>
     5  9999  1.000000e+00  1.000000e+02  7.825693e-03  1.281252e-01
       11    -1     0     0     0     0  0.0000000000e+00  0.0000000000e+00  5.0000000000e+01  5.0000000000e+01  0.0000000000e+00 0. 9.
      -11    -1     0     0     0     0  0.0000000000e+00  0.0000000000e+00 -5.0000000000e+01  5.0000000000e+01  0.0000000000e+00 0. 9.
       23     2     1     2     0     0  0.0000000000e+00  0.0000000000e+00  0.0000000000e+00  1.0000000000e+02  1.0000000000e+02 0. 9.
        2     1     3     0   101     0 -1.3834651158e+01  8.1517260035e+00  4.7350215316e+01  5.0000000000e+01  3.3000000000e-01 0. 9.
       -2     1     3     0     0   101  1.3834651158e+01 -8.1517260035e+00 -4.7350215316e+01  5.0000000000e+01  3.3000000000e-01 0. 9.
#pdf   11  -11  1.000000e+00  1.000000e+00  1.000000e+02  1.000000e+00  1.000000e+00
</event>
<event>
     5  9999  1.000000e+00  1.000000e+02  7.825693e-03  1.281252e-01
       11    -1     0     0     0     0  0.0000000000e+00  0.0000000000e+00  5.0000000000e+01  5.0000000000e+01  0.0000000000e+00 0. 9.
      -11    -1     0     0     0     0  0.0000000000e+00  0.0000000000e+00 -5.0000000000e+01  5.0000000000e+01  0.0000000000e+00 0. 9.
       23     2     1     2     0     0  0.0000000000e+00  0.0000000000e+00  0.0000000000e+00  1.0000000000e+02  1.0000000000e+02 0. 9.
        2     1     3     0   101     0 -1.3177577993e+01 -4.7162784529e+01 -1.0095260951e+01  5.0000000000e+01  3.3000000000e-01 0. 9.
       -2     1     3     0     0   101  1.3177577993e+01  4.7162784529e+01  1.0095260951e+01  5.0000000000e+01  3.3000000000e-01 0. 9.
#pdf   11  -11  1.000000e+00  1.000000e+00  1.000000e+02  1.000000e+00  1.000000e+00
</event>
<event>
     5  9999  1.000000e+00  1.000000e+02  7.825693e-03  1.281252e-01
       11    -1     0     0     0     0  0.0000000000e+00  0.0000000000e+00  5.0000000000e+01  5.0000000000e+01  0.0000000000e+00 0. 9.
      -11    -1     0     0     0     0  0.0000000000e+00  0.0000000000e+00 -5.0000000000e+01  5.0000000000e+01  0.0000000000e+00 0. 9.
       23     2     1     2     0     0  0.0000000000e+00  0.0000000000e+00  0.0000000000e+00  1.0000000000e+02  1.0000000000e+02 0. 9.
        2     1     3     0   101     0  4.3726985904e+01 -1.3366001148e+01  2.0228490233e+01  5.0000000000e+01  3.3000000000e-01 0. 9.
       -2     1     3     0     0   101 -4.3726985904e+01  1.3366001148e+01 -2.0228490233e+01  5.0000000000e+01  3.3000000000e-01 0. 9.
#pdf   11  -11  1.000000e+00  1.000000e+00  1.000000e+02  1.000000e+00  1.000000e+00
</event>
<event>
     5  9999  1.000000e+00  1.000000e+02  7.825693e-03  1.281252e-01
       11    -1     0     0     0     0  0.0000000000e+00  0.0000000000e+00  5.0000000000e+01  5.0000000000e+01  0.0000000000e+00 0. 9.
      -11    -1     0     0     0     0  0.0000000000e+00  0.0000000000e+00 -5.0000000000e+01  5.0000000000e+01  0.0000000000e+00 0. 9.
       23     2     1     2     0     0  0.0000000000e+00  0.0000000000e+00  0.0000000000e+00  1.0000000000e+02  1.0000000000e+02 0. 9.
        2     1     3     0   101     0  1.2984957249e+00  3.1347455210e+01  3.8929963533e+01  5.0000000000e+01  3.3000000000e-01 0. 9.
       -2     1     3     0     0   101 -1.2984957249e+00 -3.1347455210e+01 -3.8929963533e+01  5.0000000000e+01  3.3000000000e-01 0. 9.
#pdf   11  -11  1.000000e+00  1.000000e+00  1.000000e+02  1.000000e+00  1.000000e+00
</event>
<event>
     5  9999  1.000000e+00  1.000000e+02  7.825693e-03  1.281252e-01
       11    -1     0     0     0     0  0.0000000000e+00  0.0000000000e+00  5.0000000000e+01  5.0000000000e+01  0.0000000000e+00 0. 9.
      -11    -1     0     0     0     0  0.0000000000e+00  0.0000000000e+00 -5.0000000000e+01  5.0000000000e+01  0.0000000000e+00 0. 9.
       23     2     1     2     0     0  0.0000000000e+00  0.0000000000e+00  0.0000000000e+00  1.0000000000e+02  1.0000000000e+02 0. 9.
        2     1     3     0   101     0 -2.8169501787e+01 -3.8023760441e+01 -1.6141992162e+01  5.0000000000e+01  3.3000000000e-01 0. 9.
       -2     1     3     0     0   101  2.8169501787e+01  3.8023760441e+01  1.6141992162e+01  5.0000000000e+01  3.3000000000e-01 0. 9.
#pdf   11  -11  1.000000e+00  1.000000e+00  1.000000e+02  1.000000e+00  1.000000e+00
</event>
<event>
     5  9999  1.000000e+00  1.000000e+02  7.825693e-03  1.281252e-01
       11    -1     0     0     0     0  0.0000000000e+00  0.0000000000e+00  5.0000000000e+01  5.0000000000e+01  0.0000000000e+00 0. 9.
      -11    -1     0     0     0     0  0.0000000000e+00  0.0000000000e+00 -5.0000000000e+01  5.0000000000e+01  0.0000000000e+00 0. 9.
       23     2     1     2     0     0  0.0000000000e+00  0.0000000000e+00  0.0000000000e+00  1.0000000000e+02  1.0000000000e+02 0. 9.
        2     1     3     0   101     0 -3.7649152518e+01  1.4388708195e+01  2.9587116980e+01  5.0000000000e+01  3.3000000000e-01 0. 9.
       -2     1     3     0     0   101  3.7649152518e+01 -1.4388708195e+01 -2.9587116980e+01  5.0000000000e+01  3.3000000000e-01 0. 9.
#pdf   11  -11  1.000000e+00  1.000000e+00  1.000000e+02  1.000000e+00  1.000000e+00
</event>
<event>
     5  9999  1.000000e+00  1.000000e+02  7.825693e-03  1.281252e-01
       11    -1     0     0     0     0  0.0000000000e+00  0.0000000000e+00  5.0000000000e+01  5.0000000000e+01  0.0000000000e+00 0. 9.
      -11    -1     0     0     0     0  0.0000000000e+00  0.0000000000e+00 -5.0000000000e+01  5.0000000000e+01  0.0000000000e+00 0. 9.
       23     2     1     2     0     0  0.0000000000e+00  0.0000000000e+00  0.0000000000e+00  1.0000000000e+02  1.0000000000e+02 0. 9.
        2     1     3     0   101     0  9.4777443725e+00 -1.7036155022e+01  4.6041642930e+01  5.0000000000e+01  3.3000000000e-01 0. 9.
       -2     1     3     0     0   101 -9.4777443725e+00  1.7036155022e+01 -4.6041642930e+01  5.0000000000e+01  3.3000000000e-01 0. 9.
#pdf   11  -11  1.000000e+00  1.000000e+00  1.000000e+02  1.000000e+00  1.000000e+00
</event>
<event>
     5  9999  1.000000e+00  1.000000e+02  7.825693e-03  1.281252e-01
       11    -1     0     0     0     0  0.0000000000e+00  0.0000000000e+00  5.0000000000e+01  5.0000000000e+01  0.0000000000e+00 0. 9.
      -11    -1     0     0     0     0  0.0000000000e+00  0.0000000000e+00 -5.0000000000e+01  5.0000000000e+01  0.0000000000e+00 0. 9.
       23     2     1     2     0     0  0.0000000000e+00  0.0000000000e+00  0.0000000000e+00  1.0000000000e+02  1.0000000000e+02 0. 9.
        2     1     3     0   101     0  2.1729573556e+00 -4.9712233363e+01  4.8849985033e+00  5.0000000000e+01  3.3000000000e-01 0. 9.
       -2     1     3     0     0   101 -2.1729573556e+00  4.9712233363e+01 -4.8849985033e+00  5.0000000000e+01  3.3000000000e-01 0. 9.
#pdf   11  -11  1.000000e+00  1.000000e+00  1.000000e+02  1.000000e+00  1.000000e+00
</event>
<event>
     5  9999  1.000000e+00  1.000000e+02  7.825693e-03  1.281252e-01
       11    -1     0     0     0     0  0.0000000000e+00  0.0000000000e+00  5.0000000000e+01  5.0000000000e+01  0.0000000000e+00 0. 9.
      -11    -1     0     0     0     0  0.0000000000e+00  0.0000000000e+00 -5.0000000000e+01  5.0000000000e+01  0.0000000000e+00 0. 9.
       23     2     1     2     0     0  0.0000000000e+00  0.0000000000e+00  0.0000000000e+00  1.0000000000e+02  1.0000000000e+02 0. 9.
        2     1     3     0   101     0 -1.6145822171e+01  1.1131242784e+01  4.5992379374e+01  5.0000000000e+01  3.3000000000e-01 0. 9.
       -2     1     3     0     0   101  1.6145822171e+01 -1.1131242784e+01 -4.5992379374e+01  5.0000000000e+01  3.3000000000e-01 0. 9.
#pdf   11  -11  1.000000e+00  1.000000e+00  1.000000e+02  1.000000e+00  1.000000e+00
</event>
<event>
     5  9999  1.000000e+00  1.000000e+02  7.825693e-03  1.281252e-01
       11    -1     0     0     0     0  0.0000000000e+00  0.0000000000e+00  5.0000000000e+01  5.0000000000e+01  0.0000000000e+00 0. 9.
      -11    -1     0     0     0     0  0.0000000000e+00  0.0000000000e+00 -5.0000000000e+01  5.0000000000e+01  0.0000000000e+00 0. 9.
       23     2     1     2     0     0  0.0000000000e+00  0.0000000000e+00  0.0000000000e+00  1.0000000000e+02  1.0000000000e+02 0. 9.
        2     1     3     0   101     0  4.3909013894e+01  2.3775341632e+01 -2.5734663707e+00  5.0000000000e+01  3.3000000000e-01 0. 9.
       -2     1     3     0     0   101 -4.3909013894e+01 -2.3775341632e+01  2.5734663707e+00  5.0000000000e+01  3.3000000000e-01 0. 9.
#pdf   11  -11  1.000000e+00  1.000000e+00  1.000000e+02  1.000000e+00  1.000000e+00
</event>
<event>
     5  9999  1.000000e+00  1.000000e+02  7.825693e-03  1.281252e-01
       11    -1     0     0     0     0  0.0000000000e+00  0.0000000000e+00  5.0000000000e+01  5.0000000000e+01  0.0000000000e+00 0. 9.
      -11    -1     0     0     0     0  0.0000000000e+00  0.0000000000e+00 -5.0000000000e+01  5.0000000000e+01  0.0000000000e+00 0. 9.
       23     2     1     2     0     0  0.0000000000e+00  0.0000000000e+00  0.0000000000e+00  1.0000000000e+02  1.0000000000e+02 0. 9.
        2     1     3     0   101     0 -2.7157267740e+01 -1.7737740447e+01  3.8049263761e+01  5.0000000000e+01  3.3000000000e-01 0. 9.
       -2     1     3     0     0   101  2.7157267740e+01  1.7737740447e+01 -3.8049263761e+01  5.0000000000e+01  3.3000000000e-01 0. 9.
#pdf   11  -11  1.000000e+00  1.000000e+00  1.000000e+02  1.000000e+00  1.000000e+00
</event>
<event>
     5  9999  1.000000e+00  1.000000e+02  7.825693e-03  1.281252e-01
       11    -1     0     0     0     0  0.0000000000e+00  0.0000000000e+00  5.0000000000e+01  5.0000000000e+01  0.0000000000e+00 0. 9.
      -11    -1     0     0     0     0  0.0000000000e+00  0.0000000000e+00 -5.0000000000e+01  5.0000000000e+01  0.0000000000e+00 0. 9.
       23     2     1     2     0     0  0.0000000000e+00  0.0000000000e+00  0.0000000000e+00  1.0000000000e+02  1.0000000000e+02 0. 9.
        2     1     3     0   101     0 -1.3595080490e+01  1.0773444292e+01  4.6893472729e+01  5.0000000000e+01  3.3000000000e-01 0. 9.
       -2     1     3     0     0   101  1.3595080490e+01 -1.0773444292e+01 -4.6893472729e+01  5.0000000000e+01  3.3000000000e-01 0. 9.
#pdf   11  -11  1.000000e+00  1.000000e+00  1.000000e+02  1.000000e+00  1.000000e+00
</event>
<event>
     5  9999  1.000000e+00  1.000000e+02  7.825693e-03  1.281252e-01
       11    -1     0     0     0     0  0.0000000000e+00  0.0000000000e+00  5.0000000000e+01  5.0000000000e+01  0.0000000000e+00 0. 9.
      -11    -1     0     0     0     0  0.0000000000e+00  0.0000000000e+00 -5.0000000000e+01  5.0000000000e+01  0.0000000000e+00 0. 9.
       23     2     1     2     0     0  0.0000000000e+00  0.0000000000e+00  0.0000000000e+00  1.0000000000e+02  1.0000000000e+02 0. 9.
        2     1     3     0   101     0  4.9219990629e+01 -4.9518853243e+00  7.2637768534e+00  5.0000000000e+01  3.3000000000e-01 0. 9.
       -2     1     3     0     0   101 -4.9219990629e+01  4.9518853243e+00 -7.2637768534e+00  5.0000000000e+01  3.3000000000e-01 0. 9.
#pdf   11  -11  1.000000e+00  1.000000e+00  1.000000e+02  1.000000e+00  1.000000e+00
</event>
<event>
     5  9999  1.000000e+00  1.000000e+02  7.825693e-03  1.281252e-01
       11    -1     0     0     0     0  0.0000000000e+00  0.0000000000e+00  5.0000000000e+01  5.0000000000e+01  0.0000000000e+00 0. 9.
      -11    -1     0     0     0     0  0.0000000000e+00  0.0000000000e+00 -5.0000000000e+01  5.0000000000e+01  0.0000000000e+00 0. 9.
       23     2     1     2     0     0  0.0000000000e+00  0.0000000000e+00  0.0000000000e+00  1.0000000000e+02  1.0000000000e+02 0. 9.
        2     1     3     0   101     0  2.3079694242e+01  2.5009203603e+01  3.6630022507e+01  5.0000000000e+01  3.3000000000e-01 0. 9.
       -2     1     3     0     0   101 -2.3079694242e+01 -2.5009203603e+01 -3.6630022507e+01  5.0000000000e+01  3.3000000000e-01 0. 9.
#pdf   11  -11  1.000000e+00  1.000000e+00  1.000000e+02  1.000000e+00  1.000000e+00
</event>
<event>
     5  9999  1.000000e+00  1.000000e+02  7.825693e-03  1.281252e-01
       11    -1     0     0     0     0  0.0000000000e+00  0.0000000000e+00  5.0000000000e+01  5.0000000000e+01  0.0000000000e+00 0. 9.
      -11    -1     0     0     0     0  0.0000000000e+00  0.0000000000e+00 -5.0000000000e+01  5.0000000000e+01  0.0000000000e+00 0. 9.
       23     2     1     2     0     0  0.0000000000e+00  0.0000000000e+00  0.0000000000e+00  1.0000000000e+02  1.0000000000e+02 0. 9.
        2     1     3     0   101     0  3.4925042900e+01  2.2164895078e+01 -2.8086471915e+01  5.0000000000e+01  3.3000000000e-01 0. 9.
       -2     1     3     0     0   101 -3.4925042900e+01 -2.2164895078e+01  2.8086471915e+01  5.0000000000e+01  3.3000000000e-01 0. 9.
#pdf   11  -11  1.000000e+00  1.000000e+00  1.000000e+02  1.000000e+00  1.000000e+00
</event>
<event>
     5  9999  1.000000e+00  1.000000e+02  7.825693e-03  1.281252e-01
       11    -1     0     0     0     0  0.0000000000e+00  0.0000000000e+00  5.0000000000e+01  5.0000000000e+01  0.0000000000e+00 0. 9.
      -11    -1     0     0     0     0  0.0000000000e+00  0.0000000000e+00 -5.0000000000e+01  5.0000000000e+01  0.0000000000e+00 0. 9.
       23     2     1     2     0     0  0.0000000000e+00  0.0000000000e+00  0.0000000000e+00  1.0000000000e+02  1.0000000000e+02 0. 9.
        2     1     3     0   101     0  1.7690792731e+01 -4.0648620738e+01  2.3121777281e+01  5.0000000000e+01  3.3000000000e-01 0. 9.
       -2     1     3     0     0   101 -1.7690792731e+01  4.0648620738e+01 -2.3121777281e+01  5.0000000000e+01  3.3000000000e-01 0. 9.
#pdf   11  -11  1.000000e+00  1.000000e+00  1.000000e+02  1.000000e+00  1.000000e+00
</event>
<event>
     5  9999  1.000000e+00  1.000000e+02  7.825693e-03  1.281252e-01
       11    -1     0     0     0     0  0.0000000000e+00  0.0000000000e+00  5.0000000000e+01  5.0000000000e+01  0.0000000000e+00 0. 9.
      -11    -1     0     0     0     0  0.0000000000e+00  0.0000000000e+00 -5.0000000000e+01  5.0000000000e+01  0.0000000000e+00 0. 9.
       23     2     1     2     0     0  0.0000000000e+00  0.0000000000e+00  0.0000000000e+00  1.0000000000e+02  1.0000000000e+02 0. 9.
        2     1     3     0   101     0  1.1306555946e+01 -2.6121237068e+01  4.1106372580e+01  5.0000000000e+01  3.3000000000e-01 0. 9.
       -2     1     3     0     0   101 -1.1306555946e+01  2.6121237068e+01 -4.1106372580e+01  5.0000000000e+01  3.3000000000e-01 0. 9.
#pdf   11  -11  1.000000e+00  1.000000e+00  1.000000e+02  1.000000e+00  1.000000e+00
</event>
<event>
     5  9999  1.000000e+00  1.000000e+02  7.825693e-03  1.281252e-01
       11    -1     0     0     0     0  0.0000000000e+00  0.0000000000e+00  5.0000000000e+01  5.0000000000e+01  0.0000000000e+00 0. 9.
      -11    -1     0     0     0     0  0.0000000000e+00  0.0000000000e+00 -5.0000000000e+01  5.0000000000e+01  0.0000000000e+00 0. 9.
       23     2     1     2     0     0  0.0000000000e+00  0.0000000000e+00  0.0000000000e+00  1.0000000000e+02  1.0000000000e+02 0. 9.
        2     1     3     0   101     0 -5.9536130862e+00  3.7574842996e+01  3.2443439476e+01  5.0000000000e+01  3.3000000000e-01 0. 9.
       -2     1     3     0     0   101  5.9536130862e+00 -3.7574842996e+01 -3.2443439476e+01  5.0000000000e+01  3.3000000000e-01 0. 9.
#pdf   11  -11  1.000000e+00  1.000000e+00  1.000000e+02  1.000000e+00  1.000000e+00
</event>
<event>
     5  9999  1.000000e+00  1.000000e+02  7.825693e-03  1.281252e-01
       11    -1     0     0     0     0  0.0000000000e+00  0.0000000000e+00  5.0000000000e+01  5.0000000000e+01  0.0000000000e+00 0. 9.
      -11    -1     0     0     0     0  0.0000000000e+00  0.0000000000e+00 -5.0000000000e+01  5.0000000000e+01  0.0000000000e+00 0. 9.
       23     2     1     2     0     0  0.0000000000e+00  0.0000000000e+00  0.0000000000e+00  1.0000000000e+02  1.0000000000e+02 0. 9.
        2     1     3     0   101     0  2.8426889445e+01  4.0273642058e+01 -8.3568422147e+00  5.0000000000e+01  3.3000000000e-01 0. 9.
       -2     1     3     0     0   101 -2.8426889445e+01 -4.0273642058e+01  8.3568422147e+00  5.0000000000e+01  3.3000000000e-01 0. 9.
#pdf   11  -11  1.000000e+00  1.000000e+00  1.000000e+02  1.000000e+00  1.000000e+00
</event>
<event>
     5  9999  1.000000e+00  1.000000e+02  7.825693e-03  1.281252e-01
       11    -1     0     0     0     0  0.0000000000e+00  0.0000000000e+00  5.0000000000e+01  5.0000000000e+01  0.0000000000e+00 0. 9.
      -11    -1     0     0     0     0  0.0000000000e+00  0.0000000000e+00 -5.0000000000e+01  5.0000000000e+01  0.0000000000e+00 0. 9.
       23     2     1     2     0     0  0.0000000000e+00  0.0000000000e+00  0.0000000000e+00  1.0000000000e+02  1.0000000000e+02 0. 9.
        2     1     3     0   101     0 -4.6486195547e+01 -1.0075920499e+01 -1.5407808074e+01  5.0000000000e+01  3.3000000000e-01 0. 9.
       -2     1     3     0     0   101  4.6486195547e+01  1.0075920499e+01  1.5407808074e+01  5.0000000000e+01  3.3000000000e-01 0. 9.
#pdf   11  -11  1.000000e+00  1.000000e+00  1.000000e+02  1.000000e+00  1.000000e+00
</event>
<event>
     5  9999  1.000000e+00  1.000000e+02  7.825693e-03  1.281252e-01
       11    -1     0     0     0     0  0.0000000000e+00  0.0000000000e+00  5.0000000000e+01  5.0000000000e+01  0.0000000000e+00 0. 9.
      -11    -1     0     0     0     0  0.0000000000e+00  0.0000000000e+00 -5.0000000000e+01  5.0000000000e+01  0.0000000000e+00 0. 9.
       23     2     1     2     0     0  0.0000000000e+00  0.0000000000e+00  0.0000000000e+00  1.0000000000e+02  1.0000000000e+02 0. 9.
        2     1     3     0   101     0 -3.0734735650e+01  1.7157530770e+01  3.5508960311e+01  5.0000000000e+01  3.3000000000e-01 0. 9.
       -2     1     3     0     0   101  3.0734735650e+01 -1.7157530770e+01 -3.5508960311e+01  5.0000000000e+01  3.3000000000e-01 0. 9.
#pdf   11  -11  1.000000e+00  1.000000e+00  1.000000e+02  1.000000e+00  1.000000e+00
</event>
<event>
     5  9999  1.000000e+00  1.000000e+02  7.825693e-03  1.281252e-01
       11    -1     0     0     0     0  0.0000000000e+00  0.0000000000e+00  5.0000000000e+01  5.0000000000e+01  0.0000000000e+00 0. 9.
      -11    -1     0     0     0     0  0.0000000000e+00  0.0000000000e+00 -5.0000000000e+01  5.0000000000e+01  0.0000000000e+00 0. 9.
       23     2     1     2     0     0  0.0000000000e+00  0.0000000000e+00  0.0000000000e+00  1.0000000000e+02  1.0000000000e+02 0. 9.
        2     1     3     0   101     0 -1.8512082163e+01  3.1070761784e+01  3.4522480735e+01  5.0000000000e+01  3.3000000000e-01 0. 9.
       -2     1     3     0     0   101  1.8512082163e+01 -3.1070761784e+01 -3.4522480735e+01  5.0000000000e+01  3.3000000000e-01 0. 9.
#pdf   11  -11  1.000000e+00  1.000000e+00  1.000000e+02  1.000000e+00  1.000000e+00
</event>
<event>
     5  9999  1.000000e+00  1.000000e+02  7.825693e-03  1.281252e-01
       11    -1     0     0     0     0  0.0000000000e+00  0.0000000000e+00  5.0000000000e+01  5.0000000000e+01  0.0000000000e+00 0. 9.
      -11    -1     0     0     0     0  0.0000000000e+00  0.0000000000e+00 -5.0000000000e+01  5.0000000000e+01  0.0000000000e+00 0. 9.
       23     2     1     2     0     0  0.0000000000e+00  0.0000000000e+00  0.0000000000e+00  1.0000000000e+02  1.0000000000e+02 0. 9.
        2     1     3     0   101     0 -2.3377514799e+01 -3.4614867054e+01  2.7480791122e+01  5.0000000000e+01  3.3000000000e-01 0. 9.
       -2     1     3     0     0   101  2.3377514799e+01  3.4614867054e+01 -2.7480791122e+01  5.0000000000e+01  3.3000000000e-01 0. 9.
#pdf   11  -11  1.000000e+00  1.000000e+00  1.000000e+02  1.000000e+00  1.000000e+00
</event>
<event>
     5  9999  1.000000e+00  1.000000e+02  7.825693e-03  1.281252e-01
       11    -1     0     0     0     0  0.0000000000e+00  0.0000000000e+00  5.0000000000e+01  5.0000000000e+01  0.0000000000e+00 0. 9.
      -11    -1     0     0     0     0  0.0000000000e+00  0.0000000000e+00 -5.0000000000e+01  5.0000000000e+01  0.0000000000e+00 0. 9.
       23     2     1     2     0     0  0.0000000000e+00  0.0000000000e+00  0.0000000000e+00  1.0000000000e+02  1.0000000000e+02 0. 9.
        2     1     3     0   101     0 -1.7686417915e+01 -4.6705513518e+01 -2.3825885769e+00  5.0000000000e+01  3.3000000000e-01 0. 9.
       -2     1     3     0     0   101  1.7686417915e+01  4.6705513518e+01  2.3825885769e+00  5.0000000000e+01  3.3000000000e-01 0. 9.
#pdf   11  -11  1.000000e+00  1.000000e+00  1.000000e+02  1.000000e+00  1.000000e+00
</event>
<event>
     5  9999  1.000000e+00  1.000000e+02  7.825693e-03  1.281252e-01
       11    -1     0     0     0     0  0.0000000000e+00  0.0000000000e+00  5.0000000000e+01  5.0000000000e+01  0.0000000000e+00 0. 9.
      -11    -1     0     0     0     0  0.0000000000e+00  0.0000000000e+00 -5.0000000000e+01  5.0000000000e+01  0.0000000000e+00 0. 9.
       23     2     1     2     0     0  0.0000000000e+00  0.0000000000e+00  0.0000000000e+00  1.0000000000e+02  1.0000000000e+02 0. 9.
        2     1     3     0   101     0 -3.7734473998e+01 -2.2791089900e+01  2.3591667879e+01  5.0000000000e+01  3.3000000000e-01 0. 9.
       -2     1     3     0     0   101  3.7734473998e+01  2.2791089900e+01 -2.3591667879e+01  5.0000000000e+01  3.3000000000e-01 0. 9.
#pdf   11  -11  1.000000e+00  1.000000e+00  1.000000e+02  1.000000e+00  1.000000e+00
</event>
<event>
     5  9999  1.000000e+00  1.000000e+02  7.825693e-03  1.281252e-01
       11    -1     0     0     0     0  0.0000000000e+00  0.0000000000e+00  5.0000000000e+01  5.0000000000e+01  0.0000000000e+00 0. 9.
      -11    -1     0     0     0     0  0.0000000000e+00  0.0000000000e+00 -5.0000000000e+01  5.0000000000e+01  0.0000000000e+00 0. 9.
       23     2     1     2     0     0  0.0000000000e+00  0.0000000000e+00  0.0000000000e+00  1.0000000000e+02  1.0000000000e+02 0. 9.
        2     1     3     0   101     0 -4.0092493539e+01  7.0694274182e+00  2.9025958345e+01  5.0000000000e+01  3.3000000000e-01 0. 9.
       -2     1     3     0     0   101  4.0092493539e+01 -7.0694274182e+00 -2.9025958345e+01  5.0000000000e+01  3.3000000000e-01 0. 9.
#pdf   11  -11  1.000000e+00  1.000000e+00  1.000000e+02  1.000000e+00  1.000000e+00
</event>
<event>
     5  9999  1.000000e+00  1.000000e+02  7.825693e-03  1.281252e-01
       11    -1     0     0     0     0  0.0000000000e+00  0.0000000000e+00  5.0000000000e+01  5.0000000000e+01  0.0000000000e+00 0. 9.
      -11    -1     0     0     0     0  0.0000000000e+00  0.0000000000e+00 -5.0000000000e+01  5.0000000000e+01  0.0000000000e+00 0. 9.
       23     2     1     2     0     0  0.0000000000e+00  0.0000000000e+00  0.0000000000e+00  1.0000000000e+02  1.0000000000e+02 0. 9.
        2     1     3     0   101     0  2.1245548774e+01 -1.1620742321e+01 -4.3743297832e+01  5.0000000000e+01  3.3000000000e-01 0. 9.
       -2     1     3     0     0   101 -2.1245548774e+01  1.1620742321e+01  4.3743297832e+01  5.0000000000e+01  3.3000000000e-01 0. 9.
#pdf   11  -11  1.000000e+00  1.000000e+00  1.000000e+02  1.000000e+00  1.000000e+00
</event>
<event>
     5  9999  1.000000e+00  1.000000e+02  7.825693e-03  1.281252e-01
       11    -1     0     0     0     0  0.0000000000e+00  0.0000000000e+00  5.0000000000e+01  5.0000000000e+01  0.0000000000e+00 0. 9.
      -11    -1     0     0     0     0  0.0000000000e+00  0.0000000000e+00 -5.0000000000e+01  5.0000000000e+01  0.0000000000e+00 0. 9.
       23     2     1     2     0     0  0.0000000000e+00  0.0000000000e+00  0.0000000000e+00  1.0000000000e+02  1.0000000000e+02 0. 9.
        2     1     3     0   101     0  2.5879872295e+01 -3.3520026447e+01  2.6580653435e+01  5.0000000000e+01  3.3000000000e-01 0. 9.
       -2     1     3     0     0   101 -2.5879872295e+01  3.3520026447e+01 -2.6580653435e+01  5.0000000000e+01  3.3000000000e-01 0. 9.
#pdf   11  -11  1.000000e+00  1.000000e+00  1.000000e+02  1.000000e+00  1.000000e+00
</event>
<event>
     5  9999  1.000000e+00  1.000000e+02  7.825693e-03  1.281252e-01
       11    -1     0     0     0     0  0.0000000000e+00  0.0000000000e+00  5.0000000000e+01  5.0000000000e+01  0.0000000000e+00 0. 9.
      -11    -1     0     0     0     0  0.0000000000e+00  0.0000000000e+00 -5.0000000000e+01  5.0000000000e+01  0.0000000000e+00 0. 9.
       23     2     1     2     0     0  0.0000000000e+00  0.0000000000e+00  0.0000000000e+00  1.0000000000e+02  1.0000000000e+02 0. 9.
        2     1     3     0   101     0  4.8787361900e+01 -1.0684087875e+01  2.3525911478e+00  5.0000000000e+01  3.3000000000e-01 0. 9.
       -2     1     3     0     0   101 -4.8787361900e+01  1.0684087875e+01 -2.3525911478e+00  5.0000000000e+01  3.3000000000e-01 0. 9.
#pdf   11  -11  1.000000e+00  1.000000e+00  1.000000e+02  1.000000e+00  1.000000e+00
</event>
<event>
     5  9999  1.000000e+00  1.000000e+02  7.825693e-03  1.281252e-01
       11    -1     0     0     0     0  0.0000000000e+00  0.0000000000e+00  5.0000000000e+01  5.0000000000e+01  0.0000000000e+00 0. 9.
      -11    -1     0     0     0     0  0.0000000000e+00  0.0000000000e+00 -5.0000000000e+01  5.0000000000e+01  0.0000000000e+00 0. 9.
       23     2     1     2     0     0  0.0000000000e+00  0.0000000000e+00  0.0000000000e+00  1.0000000000e+02  1.0000000000e+02 0. 9.
        2     1     3     0   101     0  3.1525987795e+00  1.5718818663e+01 -4.7358958612e+01  5.0000000000e+01  3.3000000000e-01 0. 9.
       -2     1     3     0     0   101 -3.1525987795e+00 -1.5718818663e+01  4.7358958612e+01  5.0000000000e+01  3.3000000000e-01 0. 9.
#pdf   11  -11  1.000000e+00  1.000000e+00  1.000000e+02  1.000000e+00  1.000000e+00
</event>
<event>
     5  9999  1.000000e+00  1.000000e+02  7.825693e-03  1.281252e-01
       11    -1     0     0     0     0  0.0000000000e+00  0.0000000000e+00  5.0000000000e+01  5.0000000000e+01  0.0000000000e+00 0. 9.
      -11    -1     0     0     0     0  0.0000000000e+00  0.0000000000e+00 -5.0000000000e+01  5.0000000000e+01  0.0000000000e+00 0. 9.
       23     2     1     2     0     0  0.0000000000e+00  0.0000000000e+00  0.0000000000e+00  1.0000000000e+02  1.0000000000e+02 0. 9.
        2     1     3     0   101     0 -3.1084962112e+01 -2.5333542355e+01  2.9863487108e+01  5.0000000000e+01  3.3000000000e-01 0. 9.
       -2     1     3     0     0   101  3.1084962112e+01  2.5333542355e+01 -2.9863487108e+01  5.0000000000e+01  3.3000000000e-01 0. 9.
#pdf   11  -11  1.000000e+00  1.000000e+00  1.000000e+02  1.000000e+00  1.000000e+00
</event>
<event>
     5  9999  1.000000e+00  1.000000e+02  7.825693e-03  1.281252e-01
       11    -1     0     0     0     0  0.0000000000e+00  0.0000000000e+00  5.0000000000e+01  5.0000000000e+01  0.0000000000e+00 0. 9.
      -11    -1     0     0     0     0  0.0000000000e+00  0.0000000000e+00 -5.0000000000e+01  5.0000000000e+01  0.0000000000e+00 0. 9.
       23     2     1     2     0     0  0.0000000000e+00  0.0000000000e+00  0.0000000000e+00  1.0000000000e+02  1.0000000000e+02 0. 9.
        2     1     3     0   101     0  2.2225848454e+01 -4.3034436336e+01 -1.2407257946e+01  5.0000000000e+01  3.3000000000e-01 0. 9.
       -2     1     3     0     0   101 -2.2225848454e+01  4.3034436336e+01  1.2407257946e+01  5.0000000000e+01  3.3000000000e-01 0. 9.
#pdf   11  -11  1.000000e+00  1.000000e+00  1.000000e+02  1.000000e+00  1.000000e+00
</event>
<event>
     5  9999  1.000000e+00  1.000000e+02  7.825693e-03  1.281252e-01
       11    -1     0     0     0     0  0.0000000000e+00  0.0000000000e+00  5.0000000000e+01  5.0000000000e+01  0.0000000000e+00 0. 9.
      -11    -1     0     0     0     0  0.0000000000e+00  0.0000000000e+00 -5.0000000000e+01  5.0000000000e+01  0.0000000000e+00 0. 9.
       23     2     1     2     0     0  0.0000000000e+00  0.0000000000e+00  0.0000000000e+00  1.0000000000e+02  1.0000000000e+02 0. 9.
        2     1     3     0   101     0  2.0859864282e+01  4.2114557742e+01  1.7062273832e+01  5.0000000000e+01  3.3000000000e-01 0. 9.
       -2     1     3     0     0   101 -2.0859864282e+01 -4.2114557742e+01 -1.7062273832e+01  5.0000000000e+01  3.3000000000e-01 0. 9.
#pdf   11  -11  1.000000e+00  1.000000e+00  1.000000e+02  1.000000e+00  1.000000e+00
</event>
<event>
     5  9999  1.000000e+00  1.000000e+02  7.825693e-03  1.281252e-01
       11    -1     0     0     0     0  0.0000000000e+00  0.0000000000e+00  5.0000000000e+01  5.0000000000e+01  0.0000000000e+00 0. 9.
      -11    -1     0     0     0     0  0.0000000000e+00  0.0000000000e+00 -5.0000000000e+01  5.0000000000e+01  0.0000000000e+00 0. 9.
       23     2     1     2     0     0  0.0000000000e+00  0.0000000000e+00  0.0000000000e+00  1.0000000000e+02  1.0000000000e+02 0. 9.
        2     1     3     0   101     0 -3.7355477053e+01  2.9944705479e+01 -1.4414369495e+01  5.0000000000e+01  3.3000000000e-01 0. 9.
       -2     1     3     0     0   101  3.7355477053e+01 -2.9944705479e+01  1.4414369495e+01  5.0000000000e+01  3.3000000000e-01 0. 9.
#pdf   11  -11  1.000000e+00  1.000000e+00  1.000000e+02  1.000000e+00  1.000000e+00
</event>
<event>
     5  9999  1.000000e+00  1.000000e+02  7.825693e-03  1.281252e-01
       11    -1     0     0     0     0  0.0000000000e+00  0.0000000000e+00  5.0000000000e+01  5.0000000000e+01  0.0000000000e+00 0. 9.
      -11    -1     0     0     0     0  0.0000000000e+00  0.0000000000e+00 -5.0000000000e+01  5.0000000000e+01  0.0000000000e+00 0. 9.
       23     2     1     2     0     0  0.0000000000e+00  0.0000000000e+00  0.0000000000e+00  1.0000000000e+02  1.0000000000e+02 0. 9.
        2     1     3     0   101     0  1.0454971133e+01 -4.2666780345e+01  2.3877406341e+01  5.0000000000e+01  3.3000000000e-01 0. 9.
       -2     1     3     0     0   101 -1.0454971133e+01  4.2666780345e+01 -2.3877406341e+01  5.0000000000e+01  3.3000000000e-01 0. 9.
#pdf   11  -11  1.000000e+00  1.000000e+00  1.000000e+02  1.000000e+00  1.000000e+00
</event>
<event>
     5  9999  1.000000e+00  1.000000e+02  7.825693e-03  1.281252e-01
       11    -1     0     0     0     0  0.0000000000e+00  0.0000000000e+00  5.0000000000e+01  5.0000000000e+01  0.0000000000e+00 0. 9.
      -11    -1     0     0     0     0  0.0000000000e+00  0.0000000000e+00 -5.0000000000e+01  5.0000000000e+01  0.0000000000e+00 0. 9.
       23     2     1     2     0     0  0.0000000000e+00  0.0000000000e+00  0.0000000000e+00  1.0000000000e+02  1.0000000000e+02 0. 9.
        2     1     3     0   101     0  1.8089759502e+01  2.6255231215e+01  3.8513822649e+01  5.0000000000e+01  3.3000000000e-01 0. 9.
       -2     1     3     0     0   101 -1.8089759502e+01 -2.6255231215e+01 -3.8513822649e+01  5.0000000000e+01  3.3000000000e-01 0. 9.
#pdf   11  -11  1.000000e+00  1.000000e+00  1.000000e+02  1.000000e+00  1.000000e+00
</event>
<event>
     5  9999  1.000000e+00  1.000000e+02  7.825693e-03  1.281252e-01
       11    -1     0     0     0     0  0.0000000000e+00  0.0000000000e+00  5.0000000000e+01  5.0000000000e+01  0.0000000000e+00 0. 9.
      -11    -1     0     0     0     0  0.0000000000e+00  0.0000000000e+00 -5.0000000000e+01  5.0000000000e+01  0.0000000000e+00 0. 9.
       23     2     1     2     0     0  0.0000000000e+00  0.0000000000e+00  0.0000000000e+00  1.0000000000e+02  1.0000000000e+02 0. 9.
        2     1     3     0   101     0  3.5126822389e+01  1.5369592525e+01 -3.2090077507e+01  5.0000000000e+01  3.3000000000e-01 0. 9.
       -2     1     3     0     0   101 -3.5126822389e+01 -1.5369592525e+01  3.2090077507e+01  5.0000000000e+01  3.3000000000e-01 0. 9.
#pdf   11  -11  1.000000e+00  1.000000e+00  1.000000e+02  1.000000e+00  1.000000e+00
</event>
<event>
     5  9999  1.000000e+00  1.000000e+02  7.825693e-03  1.281252e-01
       11    -1     0     0     0     0  0.0000000000e+00  0.0000000000e+00  5.0000000000e+01  5.0000000000e+01  0.0000000000e+00 0. 9.
      -11    -1     0     0     0     0  0.0000000000e+00  0.0000000000e+00 -5.0000000000e+01  5.0000000000e+01  0.0000000000e+00 0. 9.
       23     2     1     2     0     0  0.0000000000e+00  0.0000000000e+00  0.0000000000e+00  1.0000000000e+02  1.0000000000e+02 0. 9.
        2     1     3     0   101     0  3.7401697250e+01  1.4138987462e+01  3.0018214077e+01  5.0000000000e+01  3.3000000000e-01 0. 9.
       -2     1     3     0     0   101 -3.7401697250e+01 -1.4138987462e+01 -3.0018214077e+01  5.0000000000e+01  3.3000000000e-01 0. 9.
#pdf   11  -11  1.000000e+00  1.000000e+00  1.000000e+02  1.000000e+00  1.000000e+00
</event>
<event>
     5  9999  1.000000e+00  1.000000e+02  7.825693e-03  1.281252e-01
       11    -1     0     0     0     0  0.0000000000e+00  0.0000000000e+00  5.0000000000e+01  5.0000000000e+01  0.0000000000e+00 0. 9.
      -11    -1     0     0     0     0  0.0000000000e+00  0.0000000000e+00 -5.0000000000e+01  5.0000000000e+01  0.0000000000e+00 0. 9.
       23     2     1     2     0     0  0.0000000000e+00  0.0000000000e+00  0.0000000000e+00  1.0000000000e+02  1.0000000000e+02 0. 9.
        2     1     3     0   101     0 -5.1111244736e+00  8.0686342098e+00  4.9078148382e+01  5.0000000000e+01  3.3000000000e-01 0. 9.
       -2     1     3     0     0   101  5.1111244736e+00 -8.0686342098e+00 -4.9078148382e+01  5.0000000000e+01  3.3000000000e-01 0. 9.
#pdf   11  -11  1.000000e+00  1.000000e+00  1.000000e+02  1.000000e+00  1.000000e+00
</event>
<event>
     5  9999  1.000000e+00  1.000000e+02  7.825693e-03  1.281252e-01
       11    -1     0     0     0     0  0.0000000000e+00  0.0000000000e+00  5.0000000000e+01  5.0000000000e+01  0.0000000000e+00 0. 9.
      -11    -1     0     0     0     0  0.0000000000e+00  0.0000000000e+00 -5.0000000000e+01  5.0000000000e+01  0.0000000000e+00 0. 9.
       23     2     1     2     0     0  0.0000000000e+00  0.0000000000e+00  0.0000000000e+00  1.0000000000e+02  1.0000000000e+02 0. 9.
        2     1     3     0   101     0 -3.3266024975e+01 -3.1038179448e+01  2.0733887695e+01  5.0000000000e+01  3.3000000000e-01 0. 9.
       -2     1     3     0     0   101  3.3266024975e+01  3.1038179448e+01 -2.0733887695e+01  5.0000000000e+01  3.3000000000e-01 0. 9.
#pdf   11  -11  1.000000e+00  1.000000e+00  1.000000e+02  1.000000e+00  1.000000e+00
</event>
</LesHouchesEvents>
