<LesHouchesEvents version="1.0">
<!--
  File written by Pythia8::LHAup on 07 Jun 2015 at 18:25:47
-->
<init>
  11  -11  5.120000e+04  5.120000e+04  0  0  0  0  3  1
  2.061604e-05  1.273906e-13  1.000000e+00   9999
</init>
<event>
     5  9999  1.000000e+00  1.024000e+05  8.493754e-03  6.416823e-02
       11    -1     0     0     0     0  0.0000000000e+00  0.0000000000e+00  5.1200000000e+04  5.1200000000e+04  0.0000000000e+00 0. 9.
      -11    -1     0     0     0     0  0.0000000000e+00  0.0000000000e+00 -5.1200000000e+04  5.1200000000e+04  0.0000000000e+00 0. 9.
       23     2     1     2     0     0  0.0000000000e+00  0.0000000000e+00  0.0000000000e+00  1.0240000000e+05  1.0240000000e+05 0. 9.
        2     1     3     0   101     0 -8.1678079751e+03 -4.2940357325e+04  2.6661819622e+04  5.1200000000e+04  3.3000000000e-01 0. 9.
       -2     1     3     0     0   101  8.1678079751e+03  4.2940357325e+04 -2.6661819622e+04  5.1200000000e+04  3.3000000000e-01 0. 9.
#pdf   11  -11  1.000000e+00  1.000000e+00  1.024000e+05  1.000000e+00  1.000000e+00
</event>
<event>
     5  9999  1.000000e+00  1.024000e+05  8.493754e-03  6.416823e-02
       11    -1     0     0     0     0  0.0000000000e+00  0.0000000000e+00  5.1200000000e+04  5.1200000000e+04  0.0000000000e+00 0. 9.
      -11    -1     0     0     0     0  0.0000000000e+00  0.0000000000e+00 -5.1200000000e+04  5.1200000000e+04  0.0000000000e+00 0. 9.
       23     2     1     2     0     0  0.0000000000e+00  0.0000000000e+00  0.0000000000e+00  1.0240000000e+05  1.0240000000e+05 0. 9.
        2     1     3     0   101     0  2.3377555181e+04  3.5743217098e+03  4.5410947336e+04  5.1200000000e+04  3.3000000000e-01 0. 9.
       -2     1     3     0     0   101 -2.3377555181e+04 -3.5743217098e+03 -4.5410947336e+04  5.1200000000e+04  3.3000000000e-01 0. 9.
#pdf   11  -11  1.000000e+00  1.000000e+00  1.024000e+05  1.000000e+00  1.000000e+00
</event>
<event>
     5  9999  1.000000e+00  1.024000e+05  8.493754e-03  6.416823e-02
       11    -1     0     0     0     0  0.0000000000e+00  0.0000000000e+00  5.1200000000e+04  5.1200000000e+04  0.0000000000e+00 0. 9.
      -11    -1     0     0     0     0  0.0000000000e+00  0.0000000000e+00 -5.1200000000e+04  5.1200000000e+04  0.0000000000e+00 0. 9.
       23     2     1     2     0     0  0.0000000000e+00  0.0000000000e+00  0.0000000000e+00  1.0240000000e+05  1.0240000000e+05 0. 9.
        2     1     3     0   101     0 -4.7514442679e+04  1.6740834404e+04  9.1412362523e+03  5.1200000000e+04  3.3000000000e-01 0. 9.
       -2     1     3     0     0   101  4.7514442679e+04 -1.6740834404e+04 -9.1412362523e+03  5.1200000000e+04  3.3000000000e-01 0. 9.
#pdf   11  -11  1.000000e+00  1.000000e+00  1.024000e+05  1.000000e+00  1.000000e+00
</event>
<event>
     5  9999  1.000000e+00  1.024000e+05  8.493754e-03  6.416823e-02
       11    -1     0     0     0     0  0.0000000000e+00  0.0000000000e+00  5.1200000000e+04  5.1200000000e+04  0.0000000000e+00 0. 9.
      -11    -1     0     0     0     0  0.0000000000e+00  0.0000000000e+00 -5.1200000000e+04  5.1200000000e+04  0.0000000000e+00 0. 9.
       23     2     1     2     0     0  0.0000000000e+00  0.0000000000e+00  0.0000000000e+00  1.0240000000e+05  1.0240000000e+05 0. 9.
        2     1     3     0   101     0  2.2061491587e+04  3.7035808416e+04  2.7623893350e+04  5.1200000000e+04  3.3000000000e-01 0. 9.
       -2     1     3     0     0   101 -2.2061491587e+04 -3.7035808416e+04 -2.7623893350e+04  5.1200000000e+04  3.3000000000e-01 0. 9.
#pdf   11  -11  1.000000e+00  1.000000e+00  1.024000e+05  1.000000e+00  1.000000e+00
</event>
<event>
     5  9999  1.000000e+00  1.024000e+05  8.493754e-03  6.416823e-02
       11    -1     0     0     0     0  0.0000000000e+00  0.0000000000e+00  5.1200000000e+04  5.1200000000e+04  0.0000000000e+00 0. 9.
      -11    -1     0     0     0     0  0.0000000000e+00  0.0000000000e+00 -5.1200000000e+04  5.1200000000e+04  0.0000000000e+00 0. 9.
       23     2     1     2     0     0  0.0000000000e+00  0.0000000000e+00  0.0000000000e+00  1.0240000000e+05  1.0240000000e+05 0. 9.
        2     1     3     0   101     0 -2.5444883056e+03  2.4358947897e+03  5.1078684358e+04  5.1200000000e+04  3.3000000000e-01 0. 9.
       -2     1     3     0     0   101  2.5444883056e+03 -2.4358947897e+03 -5.1078684358e+04  5.1200000000e+04  3.3000000000e-01 0. 9.
#pdf   11  -11  1.000000e+00  1.000000e+00  1.024000e+05  1.000000e+00  1.000000e+00
</event>
<event>
     5  9999  1.000000e+00  1.024000e+05  8.493754e-03  6.416823e-02
       11    -1     0     0     0     0  0.0000000000e+00  0.0000000000e+00  5.1200000000e+04  5.1200000000e+04  0.0000000000e+00 0. 9.
      -11    -1     0     0     0     0  0.0000000000e+00  0.0000000000e+00 -5.1200000000e+04  5.1200000000e+04  0.0000000000e+00 0. 9.
       23     2     1     2     0     0  0.0000000000e+00  0.0000000000e+00  0.0000000000e+00  1.0240000000e+05  1.0240000000e+05 0. 9.
        2     1     3     0   101     0  4.8589392644e+04  1.1893399491e+04 -1.0911368882e+04  5.1200000000e+04  3.3000000000e-01 0. 9.
       -2     1     3     0     0   101 -4.8589392644e+04 -1.1893399491e+04  1.0911368882e+04  5.1200000000e+04  3.3000000000e-01 0. 9.
#pdf   11  -11  1.000000e+00  1.000000e+00  1.024000e+05  1.000000e+00  1.000000e+00
</event>
<event>
     5  9999  1.000000e+00  1.024000e+05  8.493754e-03  6.416823e-02
       11    -1     0     0     0     0  0.0000000000e+00  0.0000000000e+00  5.1200000000e+04  5.1200000000e+04  0.0000000000e+00 0. 9.
      -11    -1     0     0     0     0  0.0000000000e+00  0.0000000000e+00 -5.1200000000e+04  5.1200000000e+04  0.0000000000e+00 0. 9.
       23     2     1     2     0     0  0.0000000000e+00  0.0000000000e+00  0.0000000000e+00  1.0240000000e+05  1.0240000000e+05 0. 9.
        2     1     3     0   101     0  2.0010894117e+04  3.8239307011e+04 -2.7545589771e+04  5.1200000000e+04  3.3000000000e-01 0. 9.
       -2     1     3     0     0   101 -2.0010894117e+04 -3.8239307011e+04  2.7545589771e+04  5.1200000000e+04  3.3000000000e-01 0. 9.
#pdf   11  -11  1.000000e+00  1.000000e+00  1.024000e+05  1.000000e+00  1.000000e+00
</event>
<event>
     5  9999  1.000000e+00  1.024000e+05  8.493754e-03  6.416823e-02
       11    -1     0     0     0     0  0.0000000000e+00  0.0000000000e+00  5.1200000000e+04  5.1200000000e+04  0.0000000000e+00 0. 9.
      -11    -1     0     0     0     0  0.0000000000e+00  0.0000000000e+00 -5.1200000000e+04  5.1200000000e+04  0.0000000000e+00 0. 9.
       23     2     1     2     0     0  0.0000000000e+00  0.0000000000e+00  0.0000000000e+00  1.0240000000e+05  1.0240000000e+05 0. 9.
        2     1     3     0   101     0 -5.4680600549e+03 -3.8893164750e+04  3.2846035603e+04  5.1200000000e+04  3.3000000000e-01 0. 9.
       -2     1     3     0     0   101  5.4680600549e+03  3.8893164750e+04 -3.2846035603e+04  5.1200000000e+04  3.3000000000e-01 0. 9.
#pdf   11  -11  1.000000e+00  1.000000e+00  1.024000e+05  1.000000e+00  1.000000e+00
</event>
<event>
     5  9999  1.000000e+00  1.024000e+05  8.493754e-03  6.416823e-02
       11    -1     0     0     0     0  0.0000000000e+00  0.0000000000e+00  5.1200000000e+04  5.1200000000e+04  0.0000000000e+00 0. 9.
      -11    -1     0     0     0     0  0.0000000000e+00  0.0000000000e+00 -5.1200000000e+04  5.1200000000e+04  0.0000000000e+00 0. 9.
       23     2     1     2     0     0  0.0000000000e+00  0.0000000000e+00  0.0000000000e+00  1.0240000000e+05  1.0240000000e+05 0. 9.
        2     1     3     0   101     0 -4.0830667840e+04  2.8591336800e+04  1.1697522114e+04  5.1200000000e+04  3.3000000000e-01 0. 9.
       -2     1     3     0     0   101  4.0830667840e+04 -2.8591336800e+04 -1.1697522114e+04  5.1200000000e+04  3.3000000000e-01 0. 9.
#pdf   11  -11  1.000000e+00  1.000000e+00  1.024000e+05  1.000000e+00  1.000000e+00
</event>
<event>
     5  9999  1.000000e+00  1.024000e+05  8.493754e-03  6.416823e-02
       11    -1     0     0     0     0  0.0000000000e+00  0.0000000000e+00  5.1200000000e+04  5.1200000000e+04  0.0000000000e+00 0. 9.
      -11    -1     0     0     0     0  0.0000000000e+00  0.0000000000e+00 -5.1200000000e+04  5.1200000000e+04  0.0000000000e+00 0. 9.
       23     2     1     2     0     0  0.0000000000e+00  0.0000000000e+00  0.0000000000e+00  1.0240000000e+05  1.0240000000e+05 0. 9.
        2     1     3     0   101     0  1.3307298112e+04 -2.4751492721e+04  4.2798591390e+04  5.1200000000e+04  3.3000000000e-01 0. 9.
       -2     1     3     0     0   101 -1.3307298112e+04  2.4751492721e+04 -4.2798591390e+04  5.1200000000e+04  3.3000000000e-01 0. 9.
#pdf   11  -11  1.000000e+00  1.000000e+00  1.024000e+05  1.000000e+00  1.000000e+00
</event>
<event>
     5  9999  1.000000e+00  1.024000e+05  8.493754e-03  6.416823e-02
       11    -1     0     0     0     0  0.0000000000e+00  0.0000000000e+00  5.1200000000e+04  5.1200000000e+04  0.0000000000e+00 0. 9.
      -11    -1     0     0     0     0  0.0000000000e+00  0.0000000000e+00 -5.1200000000e+04  5.1200000000e+04  0.0000000000e+00 0. 9.
       23     2     1     2     0     0  0.0000000000e+00  0.0000000000e+00  0.0000000000e+00  1.0240000000e+05  1.0240000000e+05 0. 9.
        2     1     3     0   101     0  1.9561296412e+04  2.1879400092e+04  4.1953397171e+04  5.1200000000e+04  3.3000000000e-01 0. 9.
       -2     1     3     0     0   101 -1.9561296412e+04 -2.1879400092e+04 -4.1953397171e+04  5.1200000000e+04  3.3000000000e-01 0. 9.
#pdf   11  -11  1.000000e+00  1.000000e+00  1.024000e+05  1.000000e+00  1.000000e+00
</event>
<event>
     5  9999  1.000000e+00  1.024000e+05  8.493754e-03  6.416823e-02
       11    -1     0     0     0     0  0.0000000000e+00  0.0000000000e+00  5.1200000000e+04  5.1200000000e+04  0.0000000000e+00 0. 9.
      -11    -1     0     0     0     0  0.0000000000e+00  0.0000000000e+00 -5.1200000000e+04  5.1200000000e+04  0.0000000000e+00 0. 9.
       23     2     1     2     0     0  0.0000000000e+00  0.0000000000e+00  0.0000000000e+00  1.0240000000e+05  1.0240000000e+05 0. 9.
        2     1     3     0   101     0 -2.1398301605e+04  1.0096664743e+04  4.5404956220e+04  5.1200000000e+04  3.3000000000e-01 0. 9.
       -2     1     3     0     0   101  2.1398301605e+04 -1.0096664743e+04 -4.5404956220e+04  5.1200000000e+04  3.3000000000e-01 0. 9.
#pdf   11  -11  1.000000e+00  1.000000e+00  1.024000e+05  1.000000e+00  1.000000e+00
</event>
<event>
     5  9999  1.000000e+00  1.024000e+05  8.493754e-03  6.416823e-02
       11    -1     0     0     0     0  0.0000000000e+00  0.0000000000e+00  5.1200000000e+04  5.1200000000e+04  0.0000000000e+00 0. 9.
      -11    -1     0     0     0     0  0.0000000000e+00  0.0000000000e+00 -5.1200000000e+04  5.1200000000e+04  0.0000000000e+00 0. 9.
       23     2     1     2     0     0  0.0000000000e+00  0.0000000000e+00  0.0000000000e+00  1.0240000000e+05  1.0240000000e+05 0. 9.
        2     1     3     0   101     0 -4.6737955399e+04  4.3586358923e+03  2.0445190588e+04  5.1200000000e+04  3.3000000000e-01 0. 9.
       -2     1     3     0     0   101  4.6737955399e+04 -4.3586358923e+03 -2.0445190588e+04  5.1200000000e+04  3.3000000000e-01 0. 9.
#pdf   11  -11  1.000000e+00  1.000000e+00  1.024000e+05  1.000000e+00  1.000000e+00
</event>
<event>
     5  9999  1.000000e+00  1.024000e+05  8.493754e-03  6.416823e-02
       11    -1     0     0     0     0  0.0000000000e+00  0.0000000000e+00  5.1200000000e+04  5.1200000000e+04  0.0000000000e+00 0. 9.
      -11    -1     0     0     0     0  0.0000000000e+00  0.0000000000e+00 -5.1200000000e+04  5.1200000000e+04  0.0000000000e+00 0. 9.
       23     2     1     2     0     0  0.0000000000e+00  0.0000000000e+00  0.0000000000e+00  1.0240000000e+05  1.0240000000e+05 0. 9.
        2     1     3     0   101     0 -2.7918856943e+04 -2.2732804339e+04  3.6403255813e+04  5.1200000000e+04  3.3000000000e-01 0. 9.
       -2     1     3     0     0   101  2.7918856943e+04  2.2732804339e+04 -3.6403255813e+04  5.1200000000e+04  3.3000000000e-01 0. 9.
#pdf   11  -11  1.000000e+00  1.000000e+00  1.024000e+05  1.000000e+00  1.000000e+00
</event>
<event>
     5  9999  1.000000e+00  1.024000e+05  8.493754e-03  6.416823e-02
       11    -1     0     0     0     0  0.0000000000e+00  0.0000000000e+00  5.1200000000e+04  5.1200000000e+04  0.0000000000e+00 0. 9.
      -11    -1     0     0     0     0  0.0000000000e+00  0.0000000000e+00 -5.1200000000e+04  5.1200000000e+04  0.0000000000e+00 0. 9.
       23     2     1     2     0     0  0.0000000000e+00  0.0000000000e+00  0.0000000000e+00  1.0240000000e+05  1.0240000000e+05 0. 9.
        2     1     3     0   101     0  4.0805590480e+04  1.2071777887e+04  2.8471318271e+04  5.1200000000e+04  3.3000000000e-01 0. 9.
       -2     1     3     0     0   101 -4.0805590480e+04 -1.2071777887e+04 -2.8471318271e+04  5.1200000000e+04  3.3000000000e-01 0. 9.
#pdf   11  -11  1.000000e+00  1.000000e+00  1.024000e+05  1.000000e+00  1.000000e+00
</event>
<event>
     5  9999  1.000000e+00  1.024000e+05  8.493754e-03  6.416823e-02
       11    -1     0     0     0     0  0.0000000000e+00  0.0000000000e+00  5.1200000000e+04  5.1200000000e+04  0.0000000000e+00 0. 9.
      -11    -1     0     0     0     0  0.0000000000e+00  0.0000000000e+00 -5.1200000000e+04  5.1200000000e+04  0.0000000000e+00 0. 9.
       23     2     1     2     0     0  0.0000000000e+00  0.0000000000e+00  0.0000000000e+00  1.0240000000e+05  1.0240000000e+05 0. 9.
        2     1     3     0   101     0 -1.5879356145e+04 -2.3243245443e+04  4.2767249030e+04  5.1200000000e+04  3.3000000000e-01 0. 9.
       -2     1     3     0     0   101  1.5879356145e+04  2.3243245443e+04 -4.2767249030e+04  5.1200000000e+04  3.3000000000e-01 0. 9.
#pdf   11  -11  1.000000e+00  1.000000e+00  1.024000e+05  1.000000e+00  1.000000e+00
</event>
<event>
     5  9999  1.000000e+00  1.024000e+05  8.493754e-03  6.416823e-02
       11    -1     0     0     0     0  0.0000000000e+00  0.0000000000e+00  5.1200000000e+04  5.1200000000e+04  0.0000000000e+00 0. 9.
      -11    -1     0     0     0     0  0.0000000000e+00  0.0000000000e+00 -5.1200000000e+04  5.1200000000e+04  0.0000000000e+00 0. 9.
       23     2     1     2     0     0  0.0000000000e+00  0.0000000000e+00  0.0000000000e+00  1.0240000000e+05  1.0240000000e+05 0. 9.
        2     1     3     0   101     0  8.5998183063e+03 -1.5132994231e+04  4.8150551509e+04  5.1200000000e+04  3.3000000000e-01 0. 9.
       -2     1     3     0     0   101 -8.5998183063e+03  1.5132994231e+04 -4.8150551509e+04  5.1200000000e+04  3.3000000000e-01 0. 9.
#pdf   11  -11  1.000000e+00  1.000000e+00  1.024000e+05  1.000000e+00  1.000000e+00
</event>
<event>
     5  9999  1.000000e+00  1.024000e+05  8.493754e-03  6.416823e-02
       11    -1     0     0     0     0  0.0000000000e+00  0.0000000000e+00  5.1200000000e+04  5.1200000000e+04  0.0000000000e+00 0. 9.
      -11    -1     0     0     0     0  0.0000000000e+00  0.0000000000e+00 -5.1200000000e+04  5.1200000000e+04  0.0000000000e+00 0. 9.
       23     2     1     2     0     0  0.0000000000e+00  0.0000000000e+00  0.0000000000e+00  1.0240000000e+05  1.0240000000e+05 0. 9.
        2     1     3     0   101     0 -2.9488109386e+04  3.8600617817e+04  1.6182821412e+04  5.1200000000e+04  3.3000000000e-01 0. 9.
       -2     1     3     0     0   101  2.9488109386e+04 -3.8600617817e+04 -1.6182821412e+04  5.1200000000e+04  3.3000000000e-01 0. 9.
#pdf   11  -11  1.000000e+00  1.000000e+00  1.024000e+05  1.000000e+00  1.000000e+00
</event>
<event>
     5  9999  1.000000e+00  1.024000e+05  8.493754e-03  6.416823e-02
       11    -1     0     0     0     0  0.0000000000e+00  0.0000000000e+00  5.1200000000e+04  5.1200000000e+04  0.0000000000e+00 0. 9.
      -11    -1     0     0     0     0  0.0000000000e+00  0.0000000000e+00 -5.1200000000e+04  5.1200000000e+04  0.0000000000e+00 0. 9.
       23     2     1     2     0     0  0.0000000000e+00  0.0000000000e+00  0.0000000000e+00  1.0240000000e+05  1.0240000000e+05 0. 9.
        2     1     3     0   101     0 -5.6506907376e+03 -3.8043758231e+03 -5.0744816668e+04  5.1200000000e+04  3.3000000000e-01 0. 9.
       -2     1     3     0     0   101  5.6506907376e+03  3.8043758231e+03  5.0744816668e+04  5.1200000000e+04  3.3000000000e-01 0. 9.
#pdf   11  -11  1.000000e+00  1.000000e+00  1.024000e+05  1.000000e+00  1.000000e+00
</event>
<event>
     5  9999  1.000000e+00  1.024000e+05  8.493754e-03  6.416823e-02
       11    -1     0     0     0     0  0.0000000000e+00  0.0000000000e+00  5.1200000000e+04  5.1200000000e+04  0.0000000000e+00 0. 9.
      -11    -1     0     0     0     0  0.0000000000e+00  0.0000000000e+00 -5.1200000000e+04  5.1200000000e+04  0.0000000000e+00 0. 9.
       23     2     1     2     0     0  0.0000000000e+00  0.0000000000e+00  0.0000000000e+00  1.0240000000e+05  1.0240000000e+05 0. 9.
        2     1     3     0   101     0  4.7998865870e+04  1.4596349386e+04  1.0222302076e+04  5.1200000000e+04  3.3000000000e-01 0. 9.
       -2     1     3     0     0   101 -4.7998865870e+04 -1.4596349386e+04 -1.0222302076e+04  5.1200000000e+04  3.3000000000e-01 0. 9.
#pdf   11  -11  1.000000e+00  1.000000e+00  1.024000e+05  1.000000e+00  1.000000e+00
</event>
<event>
     5  9999  1.000000e+00  1.024000e+05  8.493754e-03  6.416823e-02
       11    -1     0     0     0     0  0.0000000000e+00  0.0000000000e+00  5.1200000000e+04  5.1200000000e+04  0.0000000000e+00 0. 9.
      -11    -1     0     0     0     0  0.0000000000e+00  0.0000000000e+00 -5.1200000000e+04  5.1200000000e+04  0.0000000000e+00 0. 9.
       23     2     1     2     0     0  0.0000000000e+00  0.0000000000e+00  0.0000000000e+00  1.0240000000e+05  1.0240000000e+05 0. 9.
        2     1     3     0   101     0  4.8336937976e+03 -3.6061366118e+04  3.6022954874e+04  5.1200000000e+04  3.3000000000e-01 0. 9.
       -2     1     3     0     0   101 -4.8336937976e+03  3.6061366118e+04 -3.6022954874e+04  5.1200000000e+04  3.3000000000e-01 0. 9.
#pdf   11  -11  1.000000e+00  1.000000e+00  1.024000e+05  1.000000e+00  1.000000e+00
</event>
<event>
     5  9999  1.000000e+00  1.024000e+05  8.493754e-03  6.416823e-02
       11    -1     0     0     0     0  0.0000000000e+00  0.0000000000e+00  5.1200000000e+04  5.1200000000e+04  0.0000000000e+00 0. 9.
      -11    -1     0     0     0     0  0.0000000000e+00  0.0000000000e+00 -5.1200000000e+04  5.1200000000e+04  0.0000000000e+00 0. 9.
       23     2     1     2     0     0  0.0000000000e+00  0.0000000000e+00  0.0000000000e+00  1.0240000000e+05  1.0240000000e+05 0. 9.
        2     1     3     0   101     0 -4.3224599393e+03 -2.2702025089e+04  4.5687792645e+04  5.1200000000e+04  3.3000000000e-01 0. 9.
       -2     1     3     0     0   101  4.3224599393e+03  2.2702025089e+04 -4.5687792645e+04  5.1200000000e+04  3.3000000000e-01 0. 9.
#pdf   11  -11  1.000000e+00  1.000000e+00  1.024000e+05  1.000000e+00  1.000000e+00
</event>
<event>
     5  9999  1.000000e+00  1.024000e+05  8.493754e-03  6.416823e-02
       11    -1     0     0     0     0  0.0000000000e+00  0.0000000000e+00  5.1200000000e+04  5.1200000000e+04  0.0000000000e+00 0. 9.
      -11    -1     0     0     0     0  0.0000000000e+00  0.0000000000e+00 -5.1200000000e+04  5.1200000000e+04  0.0000000000e+00 0. 9.
       23     2     1     2     0     0  0.0000000000e+00  0.0000000000e+00  0.0000000000e+00  1.0240000000e+05  1.0240000000e+05 0. 9.
        2     1     3     0   101     0  2.9477737476e+04 -1.2756930171e+04  3.9871841264e+04  5.1200000000e+04  3.3000000000e-01 0. 9.
       -2     1     3     0     0   101 -2.9477737476e+04  1.2756930171e+04 -3.9871841264e+04  5.1200000000e+04  3.3000000000e-01 0. 9.
#pdf   11  -11  1.000000e+00  1.000000e+00  1.024000e+05  1.000000e+00  1.000000e+00
</event>
<event>
     5  9999  1.000000e+00  1.024000e+05  8.493754e-03  6.416823e-02
       11    -1     0     0     0     0  0.0000000000e+00  0.0000000000e+00  5.1200000000e+04  5.1200000000e+04  0.0000000000e+00 0. 9.
      -11    -1     0     0     0     0  0.0000000000e+00  0.0000000000e+00 -5.1200000000e+04  5.1200000000e+04  0.0000000000e+00 0. 9.
       23     2     1     2     0     0  0.0000000000e+00  0.0000000000e+00  0.0000000000e+00  1.0240000000e+05  1.0240000000e+05 0. 9.
        2     1     3     0   101     0 -2.0769840817e+04 -3.1991047567e+04  3.4155915855e+04  5.1200000000e+04  3.3000000000e-01 0. 9.
       -2     1     3     0     0   101  2.0769840817e+04  3.1991047567e+04 -3.4155915855e+04  5.1200000000e+04  3.3000000000e-01 0. 9.
#pdf   11  -11  1.000000e+00  1.000000e+00  1.024000e+05  1.000000e+00  1.000000e+00
</event>
<event>
     5  9999  1.000000e+00  1.024000e+05  8.493754e-03  6.416823e-02
       11    -1     0     0     0     0  0.0000000000e+00  0.0000000000e+00  5.1200000000e+04  5.1200000000e+04  0.0000000000e+00 0. 9.
      -11    -1     0     0     0     0  0.0000000000e+00  0.0000000000e+00 -5.1200000000e+04  5.1200000000e+04  0.0000000000e+00 0. 9.
       23     2     1     2     0     0  0.0000000000e+00  0.0000000000e+00  0.0000000000e+00  1.0240000000e+05  1.0240000000e+05 0. 9.
        2     1     3     0   101     0  8.1796940253e+02  1.0594154477e+04 -5.0085275450e+04  5.1200000000e+04  3.3000000000e-01 0. 9.
       -2     1     3     0     0   101 -8.1796940253e+02 -1.0594154477e+04  5.0085275450e+04  5.1200000000e+04  3.3000000000e-01 0. 9.
#pdf   11  -11  1.000000e+00  1.000000e+00  1.024000e+05  1.000000e+00  1.000000e+00
</event>
<event>
     5  9999  1.000000e+00  1.024000e+05  8.493754e-03  6.416823e-02
       11    -1     0     0     0     0  0.0000000000e+00  0.0000000000e+00  5.1200000000e+04  5.1200000000e+04  0.0000000000e+00 0. 9.
      -11    -1     0     0     0     0  0.0000000000e+00  0.0000000000e+00 -5.1200000000e+04  5.1200000000e+04  0.0000000000e+00 0. 9.
       23     2     1     2     0     0  0.0000000000e+00  0.0000000000e+00  0.0000000000e+00  1.0240000000e+05  1.0240000000e+05 0. 9.
        2     1     3     0   101     0  3.6897298156e+04  3.2737801246e+04  1.3720996986e+04  5.1200000000e+04  3.3000000000e-01 0. 9.
       -2     1     3     0     0   101 -3.6897298156e+04 -3.2737801246e+04 -1.3720996986e+04  5.1200000000e+04  3.3000000000e-01 0. 9.
#pdf   11  -11  1.000000e+00  1.000000e+00  1.024000e+05  1.000000e+00  1.000000e+00
</event>
<event>
     5  9999  1.000000e+00  1.024000e+05  8.493754e-03  6.416823e-02
       11    -1     0     0     0     0  0.0000000000e+00  0.0000000000e+00  5.1200000000e+04  5.1200000000e+04  0.0000000000e+00 0. 9.
      -11    -1     0     0     0     0  0.0000000000e+00  0.0000000000e+00 -5.1200000000e+04  5.1200000000e+04  0.0000000000e+00 0. 9.
       23     2     1     2     0     0  0.0000000000e+00  0.0000000000e+00  0.0000000000e+00  1.0240000000e+05  1.0240000000e+05 0. 9.
        2     1     3     0   101     0  4.3436991809e+04  7.6771976393e+03  2.5994775992e+04  5.1200000000e+04  3.3000000000e-01 0. 9.
       -2     1     3     0     0   101 -4.3436991809e+04 -7.6771976393e+03 -2.5994775992e+04  5.1200000000e+04  3.3000000000e-01 0. 9.
#pdf   11  -11  1.000000e+00  1.000000e+00  1.024000e+05  1.000000e+00  1.000000e+00
</event>
<event>
     5  9999  1.000000e+00  1.024000e+05  8.493754e-03  6.416823e-02
       11    -1     0     0     0     0  0.0000000000e+00  0.0000000000e+00  5.1200000000e+04  5.1200000000e+04  0.0000000000e+00 0. 9.
      -11    -1     0     0     0     0  0.0000000000e+00  0.0000000000e+00 -5.1200000000e+04  5.1200000000e+04  0.0000000000e+00 0. 9.
       23     2     1     2     0     0  0.0000000000e+00  0.0000000000e+00  0.0000000000e+00  1.0240000000e+05  1.0240000000e+05 0. 9.
        2     1     3     0   101     0  1.4660438605e+04 -3.3001911716e+04  3.6295803654e+04  5.1200000000e+04  3.3000000000e-01 0. 9.
       -2     1     3     0     0   101 -1.4660438605e+04  3.3001911716e+04 -3.6295803654e+04  5.1200000000e+04  3.3000000000e-01 0. 9.
#pdf   11  -11  1.000000e+00  1.000000e+00  1.024000e+05  1.000000e+00  1.000000e+00
</event>
<event>
     5  9999  1.000000e+00  1.024000e+05  8.493754e-03  6.416823e-02
       11    -1     0     0     0     0  0.0000000000e+00  0.0000000000e+00  5.1200000000e+04  5.1200000000e+04  0.0000000000e+00 0. 9.
      -11    -1     0     0     0     0  0.0000000000e+00  0.0000000000e+00 -5.1200000000e+04  5.1200000000e+04  0.0000000000e+00 0. 9.
       23     2     1     2     0     0  0.0000000000e+00  0.0000000000e+00  0.0000000000e+00  1.0240000000e+05  1.0240000000e+05 0. 9.
        2     1     3     0   101     0 -8.4616642522e+03 -1.4882299903e+04  4.8253055733e+04  5.1200000000e+04  3.3000000000e-01 0. 9.
       -2     1     3     0     0   101  8.4616642522e+03  1.4882299903e+04 -4.8253055733e+04  5.1200000000e+04  3.3000000000e-01 0. 9.
#pdf   11  -11  1.000000e+00  1.000000e+00  1.024000e+05  1.000000e+00  1.000000e+00
</event>
<event>
     5  9999  1.000000e+00  1.024000e+05  8.493754e-03  6.416823e-02
       11    -1     0     0     0     0  0.0000000000e+00  0.0000000000e+00  5.1200000000e+04  5.1200000000e+04  0.0000000000e+00 0. 9.
      -11    -1     0     0     0     0  0.0000000000e+00  0.0000000000e+00 -5.1200000000e+04  5.1200000000e+04  0.0000000000e+00 0. 9.
       23     2     1     2     0     0  0.0000000000e+00  0.0000000000e+00  0.0000000000e+00  1.0240000000e+05  1.0240000000e+05 0. 9.
        2     1     3     0   101     0  1.2733086614e+03 -2.2546454752e+03  5.1134482091e+04  5.1200000000e+04  3.3000000000e-01 0. 9.
       -2     1     3     0     0   101 -1.2733086614e+03  2.2546454752e+03 -5.1134482091e+04  5.1200000000e+04  3.3000000000e-01 0. 9.
#pdf   11  -11  1.000000e+00  1.000000e+00  1.024000e+05  1.000000e+00  1.000000e+00
</event>
<event>
     5  9999  1.000000e+00  1.024000e+05  8.493754e-03  6.416823e-02
       11    -1     0     0     0     0  0.0000000000e+00  0.0000000000e+00  5.1200000000e+04  5.1200000000e+04  0.0000000000e+00 0. 9.
      -11    -1     0     0     0     0  0.0000000000e+00  0.0000000000e+00 -5.1200000000e+04  5.1200000000e+04  0.0000000000e+00 0. 9.
       23     2     1     2     0     0  0.0000000000e+00  0.0000000000e+00  0.0000000000e+00  1.0240000000e+05  1.0240000000e+05 0. 9.
        2     1     3     0   101     0 -3.5893685063e+04 -3.5577568815e+04  8.2048747546e+03  5.1200000000e+04  3.3000000000e-01 0. 9.
       -2     1     3     0     0   101  3.5893685063e+04  3.5577568815e+04 -8.2048747546e+03  5.1200000000e+04  3.3000000000e-01 0. 9.
#pdf   11  -11  1.000000e+00  1.000000e+00  1.024000e+05  1.000000e+00  1.000000e+00
</event>
<event>
     5  9999  1.000000e+00  1.024000e+05  8.493754e-03  6.416823e-02
       11    -1     0     0     0     0  0.0000000000e+00  0.0000000000e+00  5.1200000000e+04  5.1200000000e+04  0.0000000000e+00 0. 9.
      -11    -1     0     0     0     0  0.0000000000e+00  0.0000000000e+00 -5.1200000000e+04  5.1200000000e+04  0.0000000000e+00 0. 9.
       23     2     1     2     0     0  0.0000000000e+00  0.0000000000e+00  0.0000000000e+00  1.0240000000e+05  1.0240000000e+05 0. 9.
        2     1     3     0   101     0 -3.9019381733e+03 -8.2846563785e+03  5.0374391779e+04  5.1200000000e+04  3.3000000000e-01 0. 9.
       -2     1     3     0     0   101  3.9019381733e+03  8.2846563785e+03 -5.0374391779e+04  5.1200000000e+04  3.3000000000e-01 0. 9.
#pdf   11  -11  1.000000e+00  1.000000e+00  1.024000e+05  1.000000e+00  1.000000e+00
</event>
<event>
     5  9999  1.000000e+00  1.024000e+05  8.493754e-03  6.416823e-02
       11    -1     0     0     0     0  0.0000000000e+00  0.0000000000e+00  5.1200000000e+04  5.1200000000e+04  0.0000000000e+00 0. 9.
      -11    -1     0     0     0     0  0.0000000000e+00  0.0000000000e+00 -5.1200000000e+04  5.1200000000e+04  0.0000000000e+00 0. 9.
       23     2     1     2     0     0  0.0000000000e+00  0.0000000000e+00  0.0000000000e+00  1.0240000000e+05  1.0240000000e+05 0. 9.
        2     1     3     0   101     0 -1.7191279726e+04  4.7429315017e+04  8.7384196659e+03  5.1200000000e+04  3.3000000000e-01 0. 9.
       -2     1     3     0     0   101  1.7191279726e+04 -4.7429315017e+04 -8.7384196659e+03  5.1200000000e+04  3.3000000000e-01 0. 9.
#pdf   11  -11  1.000000e+00  1.000000e+00  1.024000e+05  1.000000e+00  1.000000e+00
</event>
<event>
     5  9999  1.000000e+00  1.024000e+05  8.493754e-03  6.416823e-02
       11    -1     0     0     0     0  0.0000000000e+00  0.0000000000e+00  5.1200000000e+04  5.1200000000e+04  0.0000000000e+00 0. 9.
      -11    -1     0     0     0     0  0.0000000000e+00  0.0000000000e+00 -5.1200000000e+04  5.1200000000e+04  0.0000000000e+00 0. 9.
       23     2     1     2     0     0  0.0000000000e+00  0.0000000000e+00  0.0000000000e+00  1.0240000000e+05  1.0240000000e+05 0. 9.
        2     1     3     0   101     0  4.1176314254e+04 -1.7419688687e+02  3.0428946741e+04  5.1200000000e+04  3.3000000000e-01 0. 9.
       -2     1     3     0     0   101 -4.1176314254e+04  1.7419688687e+02 -3.0428946741e+04  5.1200000000e+04  3.3000000000e-01 0. 9.
#pdf   11  -11  1.000000e+00  1.000000e+00  1.024000e+05  1.000000e+00  1.000000e+00
</event>
<event>
     5  9999  1.000000e+00  1.024000e+05  8.493754e-03  6.416823e-02
       11    -1     0     0     0     0  0.0000000000e+00  0.0000000000e+00  5.1200000000e+04  5.1200000000e+04  0.0000000000e+00 0. 9.
      -11    -1     0     0     0     0  0.0000000000e+00  0.0000000000e+00 -5.1200000000e+04  5.1200000000e+04  0.0000000000e+00 0. 9.
       23     2     1     2     0     0  0.0000000000e+00  0.0000000000e+00  0.0000000000e+00  1.0240000000e+05  1.0240000000e+05 0. 9.
        2     1     3     0   101     0 -1.8676390327e+04  2.7653572098e+04  3.8831847683e+04  5.1200000000e+04  3.3000000000e-01 0. 9.
       -2     1     3     0     0   101  1.8676390327e+04 -2.7653572098e+04 -3.8831847683e+04  5.1200000000e+04  3.3000000000e-01 0. 9.
#pdf   11  -11  1.000000e+00  1.000000e+00  1.024000e+05  1.000000e+00  1.000000e+00
</event>
<event>
     5  9999  1.000000e+00  1.024000e+05  8.493754e-03  6.416823e-02
       11    -1     0     0     0     0  0.0000000000e+00  0.0000000000e+00  5.1200000000e+04  5.1200000000e+04  0.0000000000e+00 0. 9.
      -11    -1     0     0     0     0  0.0000000000e+00  0.0000000000e+00 -5.1200000000e+04  5.1200000000e+04  0.0000000000e+00 0. 9.
       23     2     1     2     0     0  0.0000000000e+00  0.0000000000e+00  0.0000000000e+00  1.0240000000e+05  1.0240000000e+05 0. 9.
        2     1     3     0   101     0 -7.8400160363e+03 -1.6967065525e+04  4.7666474968e+04  5.1200000000e+04  3.3000000000e-01 0. 9.
       -2     1     3     0     0   101  7.8400160363e+03  1.6967065525e+04 -4.7666474968e+04  5.1200000000e+04  3.3000000000e-01 0. 9.
#pdf   11  -11  1.000000e+00  1.000000e+00  1.024000e+05  1.000000e+00  1.000000e+00
</event>
<event>
     5  9999  1.000000e+00  1.024000e+05  8.493754e-03  6.416823e-02
       11    -1     0     0     0     0  0.0000000000e+00  0.0000000000e+00  5.1200000000e+04  5.1200000000e+04  0.0000000000e+00 0. 9.
      -11    -1     0     0     0     0  0.0000000000e+00  0.0000000000e+00 -5.1200000000e+04  5.1200000000e+04  0.0000000000e+00 0. 9.
       23     2     1     2     0     0  0.0000000000e+00  0.0000000000e+00  0.0000000000e+00  1.0240000000e+05  1.0240000000e+05 0. 9.
        2     1     3     0   101     0 -4.9345238545e+04 -1.1154009187e+04  7.8788014241e+03  5.1200000000e+04  3.3000000000e-01 0. 9.
       -2     1     3     0     0   101  4.9345238545e+04  1.1154009187e+04 -7.8788014241e+03  5.1200000000e+04  3.3000000000e-01 0. 9.
#pdf   11  -11  1.000000e+00  1.000000e+00  1.024000e+05  1.000000e+00  1.000000e+00
</event>
<event>
     5  9999  1.000000e+00  1.024000e+05  8.493754e-03  6.416823e-02
       11    -1     0     0     0     0  0.0000000000e+00  0.0000000000e+00  5.1200000000e+04  5.1200000000e+04  0.0000000000e+00 0. 9.
      -11    -1     0     0     0     0  0.0000000000e+00  0.0000000000e+00 -5.1200000000e+04  5.1200000000e+04  0.0000000000e+00 0. 9.
       23     2     1     2     0     0  0.0000000000e+00  0.0000000000e+00  0.0000000000e+00  1.0240000000e+05  1.0240000000e+05 0. 9.
        2     1     3     0   101     0  2.6014600149e+03 -5.0240194410e+03  5.0886458261e+04  5.1200000000e+04  3.3000000000e-01 0. 9.
       -2     1     3     0     0   101 -2.6014600149e+03  5.0240194410e+03 -5.0886458261e+04  5.1200000000e+04  3.3000000000e-01 0. 9.
#pdf   11  -11  1.000000e+00  1.000000e+00  1.024000e+05  1.000000e+00  1.000000e+00
</event>
<event>
     5  9999  1.000000e+00  1.024000e+05  8.493754e-03  6.416823e-02
       11    -1     0     0     0     0  0.0000000000e+00  0.0000000000e+00  5.1200000000e+04  5.1200000000e+04  0.0000000000e+00 0. 9.
      -11    -1     0     0     0     0  0.0000000000e+00  0.0000000000e+00 -5.1200000000e+04  5.1200000000e+04  0.0000000000e+00 0. 9.
       23     2     1     2     0     0  0.0000000000e+00  0.0000000000e+00  0.0000000000e+00  1.0240000000e+05  1.0240000000e+05 0. 9.
        2     1     3     0   101     0 -2.1375093962e+04 -9.6503160735e+03 -4.5512819707e+04  5.1200000000e+04  3.3000000000e-01 0. 9.
       -2     1     3     0     0   101  2.1375093962e+04  9.6503160735e+03  4.5512819707e+04  5.1200000000e+04  3.3000000000e-01 0. 9.
#pdf   11  -11  1.000000e+00  1.000000e+00  1.024000e+05  1.000000e+00  1.000000e+00
</event>
<event>
     5  9999  1.000000e+00  1.024000e+05  8.493754e-03  6.416823e-02
       11    -1     0     0     0     0  0.0000000000e+00  0.0000000000e+00  5.1200000000e+04  5.1200000000e+04  0.0000000000e+00 0. 9.
      -11    -1     0     0     0     0  0.0000000000e+00  0.0000000000e+00 -5.1200000000e+04  5.1200000000e+04  0.0000000000e+00 0. 9.
       23     2     1     2     0     0  0.0000000000e+00  0.0000000000e+00  0.0000000000e+00  1.0240000000e+05  1.0240000000e+05 0. 9.
        2     1     3     0   101     0  2.3932552280e+04  4.3053347025e+04 -1.3967184799e+04  5.1200000000e+04  3.3000000000e-01 0. 9.
       -2     1     3     0     0   101 -2.3932552280e+04 -4.3053347025e+04  1.3967184799e+04  5.1200000000e+04  3.3000000000e-01 0. 9.
#pdf   11  -11  1.000000e+00  1.000000e+00  1.024000e+05  1.000000e+00  1.000000e+00
</event>
<event>
     5  9999  1.000000e+00  1.024000e+05  8.493754e-03  6.416823e-02
       11    -1     0     0     0     0  0.0000000000e+00  0.0000000000e+00  5.1200000000e+04  5.1200000000e+04  0.0000000000e+00 0. 9.
      -11    -1     0     0     0     0  0.0000000000e+00  0.0000000000e+00 -5.1200000000e+04  5.1200000000e+04  0.0000000000e+00 0. 9.
       23     2     1     2     0     0  0.0000000000e+00  0.0000000000e+00  0.0000000000e+00  1.0240000000e+05  1.0240000000e+05 0. 9.
        2     1     3     0   101     0 -1.8555756294e+04  4.7350395024e+04 -5.9214862397e+03  5.1200000000e+04  3.3000000000e-01 0. 9.
       -2     1     3     0     0   101  1.8555756294e+04 -4.7350395024e+04  5.9214862397e+03  5.1200000000e+04  3.3000000000e-01 0. 9.
#pdf   11  -11  1.000000e+00  1.000000e+00  1.024000e+05  1.000000e+00  1.000000e+00
</event>
<event>
     5  9999  1.000000e+00  1.024000e+05  8.493754e-03  6.416823e-02
       11    -1     0     0     0     0  0.0000000000e+00  0.0000000000e+00  5.1200000000e+04  5.1200000000e+04  0.0000000000e+00 0. 9.
      -11    -1     0     0     0     0  0.0000000000e+00  0.0000000000e+00 -5.1200000000e+04  5.1200000000e+04  0.0000000000e+00 0. 9.
       23     2     1     2     0     0  0.0000000000e+00  0.0000000000e+00  0.0000000000e+00  1.0240000000e+05  1.0240000000e+05 0. 9.
        2     1     3     0   101     0  9.8683051341e+03 -1.4790243239e+04  4.8013594519e+04  5.1200000000e+04  3.3000000000e-01 0. 9.
       -2     1     3     0     0   101 -9.8683051341e+03  1.4790243239e+04 -4.8013594519e+04  5.1200000000e+04  3.3000000000e-01 0. 9.
#pdf   11  -11  1.000000e+00  1.000000e+00  1.024000e+05  1.000000e+00  1.000000e+00
</event>
<event>
     5  9999  1.000000e+00  1.024000e+05  8.493754e-03  6.416823e-02
       11    -1     0     0     0     0  0.0000000000e+00  0.0000000000e+00  5.1200000000e+04  5.1200000000e+04  0.0000000000e+00 0. 9.
      -11    -1     0     0     0     0  0.0000000000e+00  0.0000000000e+00 -5.1200000000e+04  5.1200000000e+04  0.0000000000e+00 0. 9.
       23     2     1     2     0     0  0.0000000000e+00  0.0000000000e+00  0.0000000000e+00  1.0240000000e+05  1.0240000000e+05 0. 9.
        2     1     3     0   101     0  2.6754723877e+04 -1.3523532322e+04  4.1505889024e+04  5.1200000000e+04  3.3000000000e-01 0. 9.
       -2     1     3     0     0   101 -2.6754723877e+04  1.3523532322e+04 -4.1505889024e+04  5.1200000000e+04  3.3000000000e-01 0. 9.
#pdf   11  -11  1.000000e+00  1.000000e+00  1.024000e+05  1.000000e+00  1.000000e+00
</event>
<event>
     5  9999  1.000000e+00  1.024000e+05  8.493754e-03  6.416823e-02
       11    -1     0     0     0     0  0.0000000000e+00  0.0000000000e+00  5.1200000000e+04  5.1200000000e+04  0.0000000000e+00 0. 9.
      -11    -1     0     0     0     0  0.0000000000e+00  0.0000000000e+00 -5.1200000000e+04  5.1200000000e+04  0.0000000000e+00 0. 9.
       23     2     1     2     0     0  0.0000000000e+00  0.0000000000e+00  0.0000000000e+00  1.0240000000e+05  1.0240000000e+05 0. 9.
        2     1     3     0   101     0 -3.0121198275e+04  1.7131321590e+04  3.7691792674e+04  5.1200000000e+04  3.3000000000e-01 0. 9.
       -2     1     3     0     0   101  3.0121198275e+04 -1.7131321590e+04 -3.7691792674e+04  5.1200000000e+04  3.3000000000e-01 0. 9.
#pdf   11  -11  1.000000e+00  1.000000e+00  1.024000e+05  1.000000e+00  1.000000e+00
</event>
<event>
     5  9999  1.000000e+00  1.024000e+05  8.493754e-03  6.416823e-02
       11    -1     0     0     0     0  0.0000000000e+00  0.0000000000e+00  5.1200000000e+04  5.1200000000e+04  0.0000000000e+00 0. 9.
      -11    -1     0     0     0     0  0.0000000000e+00  0.0000000000e+00 -5.1200000000e+04  5.1200000000e+04  0.0000000000e+00 0. 9.
       23     2     1     2     0     0  0.0000000000e+00  0.0000000000e+00  0.0000000000e+00  1.0240000000e+05  1.0240000000e+05 0. 9.
        2     1     3     0   101     0  2.7020856785e+04  1.2409317317e+04  4.1681196507e+04  5.1200000000e+04  3.3000000000e-01 0. 9.
       -2     1     3     0     0   101 -2.7020856785e+04 -1.2409317317e+04 -4.1681196507e+04  5.1200000000e+04  3.3000000000e-01 0. 9.
#pdf   11  -11  1.000000e+00  1.000000e+00  1.024000e+05  1.000000e+00  1.000000e+00
</event>
<event>
     5  9999  1.000000e+00  1.024000e+05  8.493754e-03  6.416823e-02
       11    -1     0     0     0     0  0.0000000000e+00  0.0000000000e+00  5.1200000000e+04  5.1200000000e+04  0.0000000000e+00 0. 9.
      -11    -1     0     0     0     0  0.0000000000e+00  0.0000000000e+00 -5.1200000000e+04  5.1200000000e+04  0.0000000000e+00 0. 9.
       23     2     1     2     0     0  0.0000000000e+00  0.0000000000e+00  0.0000000000e+00  1.0240000000e+05  1.0240000000e+05 0. 9.
        2     1     3     0   101     0 -4.5300886889e+04  1.8387515405e+04  1.5204240336e+04  5.1200000000e+04  3.3000000000e-01 0. 9.
       -2     1     3     0     0   101  4.5300886889e+04 -1.8387515405e+04 -1.5204240336e+04  5.1200000000e+04  3.3000000000e-01 0. 9.
#pdf   11  -11  1.000000e+00  1.000000e+00  1.024000e+05  1.000000e+00  1.000000e+00
</event>
<event>
     5  9999  1.000000e+00  1.024000e+05  8.493754e-03  6.416823e-02
       11    -1     0     0     0     0  0.0000000000e+00  0.0000000000e+00  5.1200000000e+04  5.1200000000e+04  0.0000000000e+00 0. 9.
      -11    -1     0     0     0     0  0.0000000000e+00  0.0000000000e+00 -5.1200000000e+04  5.1200000000e+04  0.0000000000e+00 0. 9.
       23     2     1     2     0     0  0.0000000000e+00  0.0000000000e+00  0.0000000000e+00  1.0240000000e+05  1.0240000000e+05 0. 9.
        2     1     3     0   101     0  3.5303066206e+04 -3.2528862982e+04  1.7804678864e+04  5.1200000000e+04  3.3000000000e-01 0. 9.
       -2     1     3     0     0   101 -3.5303066206e+04  3.2528862982e+04 -1.7804678864e+04  5.1200000000e+04  3.3000000000e-01 0. 9.
#pdf   11  -11  1.000000e+00  1.000000e+00  1.024000e+05  1.000000e+00  1.000000e+00
</event>
<event>
     5  9999  1.000000e+00  1.024000e+05  8.493754e-03  6.416823e-02
       11    -1     0     0     0     0  0.0000000000e+00  0.0000000000e+00  5.1200000000e+04  5.1200000000e+04  0.0000000000e+00 0. 9.
      -11    -1     0     0     0     0  0.0000000000e+00  0.0000000000e+00 -5.1200000000e+04  5.1200000000e+04  0.0000000000e+00 0. 9.
       23     2     1     2     0     0  0.0000000000e+00  0.0000000000e+00  0.0000000000e+00  1.0240000000e+05  1.0240000000e+05 0. 9.
        2     1     3     0   101     0 -3.8715017760e+03 -1.7994825376e+04  4.7776958187e+04  5.1200000000e+04  3.3000000000e-01 0. 9.
       -2     1     3     0     0   101  3.8715017760e+03  1.7994825376e+04 -4.7776958187e+04  5.1200000000e+04  3.3000000000e-01 0. 9.
#pdf   11  -11  1.000000e+00  1.000000e+00  1.024000e+05  1.000000e+00  1.000000e+00
</event>
<event>
     5  9999  1.000000e+00  1.024000e+05  8.493754e-03  6.416823e-02
       11    -1     0     0     0     0  0.0000000000e+00  0.0000000000e+00  5.1200000000e+04  5.1200000000e+04  0.0000000000e+00 0. 9.
      -11    -1     0     0     0     0  0.0000000000e+00  0.0000000000e+00 -5.1200000000e+04  5.1200000000e+04  0.0000000000e+00 0. 9.
       23     2     1     2     0     0  0.0000000000e+00  0.0000000000e+00  0.0000000000e+00  1.0240000000e+05  1.0240000000e+05 0. 9.
        2     1     3     0   101     0  1.7267439787e+04  1.0866929839e+04  4.6959401178e+04  5.1200000000e+04  3.3000000000e-01 0. 9.
       -2     1     3     0     0   101 -1.7267439787e+04 -1.0866929839e+04 -4.6959401178e+04  5.1200000000e+04  3.3000000000e-01 0. 9.
#pdf   11  -11  1.000000e+00  1.000000e+00  1.024000e+05  1.000000e+00  1.000000e+00
</event>
<event>
     5  9999  1.000000e+00  1.024000e+05  8.493754e-03  6.416823e-02
       11    -1     0     0     0     0  0.0000000000e+00  0.0000000000e+00  5.1200000000e+04  5.1200000000e+04  0.0000000000e+00 0. 9.
      -11    -1     0     0     0     0  0.0000000000e+00  0.0000000000e+00 -5.1200000000e+04  5.1200000000e+04  0.0000000000e+00 0. 9.
       23     2     1     2     0     0  0.0000000000e+00  0.0000000000e+00  0.0000000000e+00  1.0240000000e+05  1.0240000000e+05 0. 9.
        2     1     3     0   101     0  6.7380556142e+03  4.9682289052e+04  1.0378283144e+04  5.1200000000e+04  3.3000000000e-01 0. 9.
       -2     1     3     0     0   101 -6.7380556142e+03 -4.9682289052e+04 -1.0378283144e+04  5.1200000000e+04  3.3000000000e-01 0. 9.
#pdf   11  -11  1.000000e+00  1.000000e+00  1.024000e+05  1.000000e+00  1.000000e+00
</event>
<event>
     5  9999  1.000000e+00  1.024000e+05  8.493754e-03  6.416823e-02
       11    -1     0     0     0     0  0.0000000000e+00  0.0000000000e+00  5.1200000000e+04  5.1200000000e+04  0.0000000000e+00 0. 9.
      -11    -1     0     0     0     0  0.0000000000e+00  0.0000000000e+00 -5.1200000000e+04  5.1200000000e+04  0.0000000000e+00 0. 9.
       23     2     1     2     0     0  0.0000000000e+00  0.0000000000e+00  0.0000000000e+00  1.0240000000e+05  1.0240000000e+05 0. 9.
        2     1     3     0   101     0 -7.1548727008e+03 -2.3696462745e+04  4.4818806878e+04  5.1200000000e+04  3.3000000000e-01 0. 9.
       -2     1     3     0     0   101  7.1548727008e+03  2.3696462745e+04 -4.4818806878e+04  5.1200000000e+04  3.3000000000e-01 0. 9.
#pdf   11  -11  1.000000e+00  1.000000e+00  1.024000e+05  1.000000e+00  1.000000e+00
</event>
<event>
     5  9999  1.000000e+00  1.024000e+05  8.493754e-03  6.416823e-02
       11    -1     0     0     0     0  0.0000000000e+00  0.0000000000e+00  5.1200000000e+04  5.1200000000e+04  0.0000000000e+00 0. 9.
      -11    -1     0     0     0     0  0.0000000000e+00  0.0000000000e+00 -5.1200000000e+04  5.1200000000e+04  0.0000000000e+00 0. 9.
       23     2     1     2     0     0  0.0000000000e+00  0.0000000000e+00  0.0000000000e+00  1.0240000000e+05  1.0240000000e+05 0. 9.
        2     1     3     0   101     0  1.1338388860e+04 -4.7336668558e+04  1.5878310608e+04  5.1200000000e+04  3.3000000000e-01 0. 9.
       -2     1     3     0     0   101 -1.1338388860e+04  4.7336668558e+04 -1.5878310608e+04  5.1200000000e+04  3.3000000000e-01 0. 9.
#pdf   11  -11  1.000000e+00  1.000000e+00  1.024000e+05  1.000000e+00  1.000000e+00
</event>
<event>
     5  9999  1.000000e+00  1.024000e+05  8.493754e-03  6.416823e-02
       11    -1     0     0     0     0  0.0000000000e+00  0.0000000000e+00  5.1200000000e+04  5.1200000000e+04  0.0000000000e+00 0. 9.
      -11    -1     0     0     0     0  0.0000000000e+00  0.0000000000e+00 -5.1200000000e+04  5.1200000000e+04  0.0000000000e+00 0. 9.
       23     2     1     2     0     0  0.0000000000e+00  0.0000000000e+00  0.0000000000e+00  1.0240000000e+05  1.0240000000e+05 0. 9.
        2     1     3     0   101     0 -4.2066254795e+04 -3.1812042618e+03  2.9012930683e+04  5.1200000000e+04  3.3000000000e-01 0. 9.
       -2     1     3     0     0   101  4.2066254795e+04  3.1812042618e+03 -2.9012930683e+04  5.1200000000e+04  3.3000000000e-01 0. 9.
#pdf   11  -11  1.000000e+00  1.000000e+00  1.024000e+05  1.000000e+00  1.000000e+00
</event>
<event>
     5  9999  1.000000e+00  1.024000e+05  8.493754e-03  6.416823e-02
       11    -1     0     0     0     0  0.0000000000e+00  0.0000000000e+00  5.1200000000e+04  5.1200000000e+04  0.0000000000e+00 0. 9.
      -11    -1     0     0     0     0  0.0000000000e+00  0.0000000000e+00 -5.1200000000e+04  5.1200000000e+04  0.0000000000e+00 0. 9.
       23     2     1     2     0     0  0.0000000000e+00  0.0000000000e+00  0.0000000000e+00  1.0240000000e+05  1.0240000000e+05 0. 9.
        2     1     3     0   101     0 -5.5038481924e+03  4.8122668591e+04  1.6593867020e+04  5.1200000000e+04  3.3000000000e-01 0. 9.
       -2     1     3     0     0   101  5.5038481924e+03 -4.8122668591e+04 -1.6593867020e+04  5.1200000000e+04  3.3000000000e-01 0. 9.
#pdf   11  -11  1.000000e+00  1.000000e+00  1.024000e+05  1.000000e+00  1.000000e+00
</event>
<event>
     5  9999  1.000000e+00  1.024000e+05  8.493754e-03  6.416823e-02
       11    -1     0     0     0     0  0.0000000000e+00  0.0000000000e+00  5.1200000000e+04  5.1200000000e+04  0.0000000000e+00 0. 9.
      -11    -1     0     0     0     0  0.0000000000e+00  0.0000000000e+00 -5.1200000000e+04  5.1200000000e+04  0.0000000000e+00 0. 9.
       23     2     1     2     0     0  0.0000000000e+00  0.0000000000e+00  0.0000000000e+00  1.0240000000e+05  1.0240000000e+05 0. 9.
        2     1     3     0   101     0 -2.8227829859e+04  3.1968695665e+04  2.8330762765e+04  5.1200000000e+04  3.3000000000e-01 0. 9.
       -2     1     3     0     0   101  2.8227829859e+04 -3.1968695665e+04 -2.8330762765e+04  5.1200000000e+04  3.3000000000e-01 0. 9.
#pdf   11  -11  1.000000e+00  1.000000e+00  1.024000e+05  1.000000e+00  1.000000e+00
</event>
<event>
     5  9999  1.000000e+00  1.024000e+05  8.493754e-03  6.416823e-02
       11    -1     0     0     0     0  0.0000000000e+00  0.0000000000e+00  5.1200000000e+04  5.1200000000e+04  0.0000000000e+00 0. 9.
      -11    -1     0     0     0     0  0.0000000000e+00  0.0000000000e+00 -5.1200000000e+04  5.1200000000e+04  0.0000000000e+00 0. 9.
       23     2     1     2     0     0  0.0000000000e+00  0.0000000000e+00  0.0000000000e+00  1.0240000000e+05  1.0240000000e+05 0. 9.
        2     1     3     0   101     0  2.2515101609e+04  3.4162442724e+04  3.0780476061e+04  5.1200000000e+04  3.3000000000e-01 0. 9.
       -2     1     3     0     0   101 -2.2515101609e+04 -3.4162442724e+04 -3.0780476061e+04  5.1200000000e+04  3.3000000000e-01 0. 9.
#pdf   11  -11  1.000000e+00  1.000000e+00  1.024000e+05  1.000000e+00  1.000000e+00
</event>
<event>
     5  9999  1.000000e+00  1.024000e+05  8.493754e-03  6.416823e-02
       11    -1     0     0     0     0  0.0000000000e+00  0.0000000000e+00  5.1200000000e+04  5.1200000000e+04  0.0000000000e+00 0. 9.
      -11    -1     0     0     0     0  0.0000000000e+00  0.0000000000e+00 -5.1200000000e+04  5.1200000000e+04  0.0000000000e+00 0. 9.
       23     2     1     2     0     0  0.0000000000e+00  0.0000000000e+00  0.0000000000e+00  1.0240000000e+05  1.0240000000e+05 0. 9.
        2     1     3     0   101     0 -7.4207037026e+01 -2.8927389562e+04  4.2245007117e+04  5.1200000000e+04  3.3000000000e-01 0. 9.
       -2     1     3     0     0   101  7.4207037026e+01  2.8927389562e+04 -4.2245007117e+04  5.1200000000e+04  3.3000000000e-01 0. 9.
#pdf   11  -11  1.000000e+00  1.000000e+00  1.024000e+05  1.000000e+00  1.000000e+00
</event>
<event>
     5  9999  1.000000e+00  1.024000e+05  8.493754e-03  6.416823e-02
       11    -1     0     0     0     0  0.0000000000e+00  0.0000000000e+00  5.1200000000e+04  5.1200000000e+04  0.0000000000e+00 0. 9.
      -11    -1     0     0     0     0  0.0000000000e+00  0.0000000000e+00 -5.1200000000e+04  5.1200000000e+04  0.0000000000e+00 0. 9.
       23     2     1     2     0     0  0.0000000000e+00  0.0000000000e+00  0.0000000000e+00  1.0240000000e+05  1.0240000000e+05 0. 9.
        2     1     3     0   101     0 -1.4166991346e+04  8.3475492390e+03  4.8487676556e+04  5.1200000000e+04  3.3000000000e-01 0. 9.
       -2     1     3     0     0   101  1.4166991346e+04 -8.3475492390e+03 -4.8487676556e+04  5.1200000000e+04  3.3000000000e-01 0. 9.
#pdf   11  -11  1.000000e+00  1.000000e+00  1.024000e+05  1.000000e+00  1.000000e+00
</event>
<event>
     5  9999  1.000000e+00  1.024000e+05  8.493754e-03  6.416823e-02
       11    -1     0     0     0     0  0.0000000000e+00  0.0000000000e+00  5.1200000000e+04  5.1200000000e+04  0.0000000000e+00 0. 9.
      -11    -1     0     0     0     0  0.0000000000e+00  0.0000000000e+00 -5.1200000000e+04  5.1200000000e+04  0.0000000000e+00 0. 9.
       23     2     1     2     0     0  0.0000000000e+00  0.0000000000e+00  0.0000000000e+00  1.0240000000e+05  1.0240000000e+05 0. 9.
        2     1     3     0   101     0 -1.3494133770e+04 -4.8295743250e+04 -1.0337772372e+04  5.1200000000e+04  3.3000000000e-01 0. 9.
       -2     1     3     0     0   101  1.3494133770e+04  4.8295743250e+04  1.0337772372e+04  5.1200000000e+04  3.3000000000e-01 0. 9.
#pdf   11  -11  1.000000e+00  1.000000e+00  1.024000e+05  1.000000e+00  1.000000e+00
</event>
<event>
     5  9999  1.000000e+00  1.024000e+05  8.493754e-03  6.416823e-02
       11    -1     0     0     0     0  0.0000000000e+00  0.0000000000e+00  5.1200000000e+04  5.1200000000e+04  0.0000000000e+00 0. 9.
      -11    -1     0     0     0     0  0.0000000000e+00  0.0000000000e+00 -5.1200000000e+04  5.1200000000e+04  0.0000000000e+00 0. 9.
       23     2     1     2     0     0  0.0000000000e+00  0.0000000000e+00  0.0000000000e+00  1.0240000000e+05  1.0240000000e+05 0. 9.
        2     1     3     0   101     0  4.4777408827e+04 -1.3687083283e+04  2.0714425163e+04  5.1200000000e+04  3.3000000000e-01 0. 9.
       -2     1     3     0     0   101 -4.4777408827e+04  1.3687083283e+04 -2.0714425163e+04  5.1200000000e+04  3.3000000000e-01 0. 9.
#pdf   11  -11  1.000000e+00  1.000000e+00  1.024000e+05  1.000000e+00  1.000000e+00
</event>
<event>
     5  9999  1.000000e+00  1.024000e+05  8.493754e-03  6.416823e-02
       11    -1     0     0     0     0  0.0000000000e+00  0.0000000000e+00  5.1200000000e+04  5.1200000000e+04  0.0000000000e+00 0. 9.
      -11    -1     0     0     0     0  0.0000000000e+00  0.0000000000e+00 -5.1200000000e+04  5.1200000000e+04  0.0000000000e+00 0. 9.
       23     2     1     2     0     0  0.0000000000e+00  0.0000000000e+00  0.0000000000e+00  1.0240000000e+05  1.0240000000e+05 0. 9.
        2     1     3     0   101     0  1.3296885832e+03  3.2100493291e+04  3.9865150930e+04  5.1200000000e+04  3.3000000000e-01 0. 9.
       -2     1     3     0     0   101 -1.3296885832e+03 -3.2100493291e+04 -3.9865150930e+04  5.1200000000e+04  3.3000000000e-01 0. 9.
#pdf   11  -11  1.000000e+00  1.000000e+00  1.024000e+05  1.000000e+00  1.000000e+00
</event>
<event>
     5  9999  1.000000e+00  1.024000e+05  8.493754e-03  6.416823e-02
       11    -1     0     0     0     0  0.0000000000e+00  0.0000000000e+00  5.1200000000e+04  5.1200000000e+04  0.0000000000e+00 0. 9.
      -11    -1     0     0     0     0  0.0000000000e+00  0.0000000000e+00 -5.1200000000e+04  5.1200000000e+04  0.0000000000e+00 0. 9.
       23     2     1     2     0     0  0.0000000000e+00  0.0000000000e+00  0.0000000000e+00  1.0240000000e+05  1.0240000000e+05 0. 9.
        2     1     3     0   101     0 -2.8846198107e+04 -3.8937178752e+04 -1.6529759996e+04  5.1200000000e+04  3.3000000000e-01 0. 9.
       -2     1     3     0     0   101  2.8846198107e+04  3.8937178752e+04  1.6529759996e+04  5.1200000000e+04  3.3000000000e-01 0. 9.
#pdf   11  -11  1.000000e+00  1.000000e+00  1.024000e+05  1.000000e+00  1.000000e+00
</event>
<event>
     5  9999  1.000000e+00  1.024000e+05  8.493754e-03  6.416823e-02
       11    -1     0     0     0     0  0.0000000000e+00  0.0000000000e+00  5.1200000000e+04  5.1200000000e+04  0.0000000000e+00 0. 9.
      -11    -1     0     0     0     0  0.0000000000e+00  0.0000000000e+00 -5.1200000000e+04  5.1200000000e+04  0.0000000000e+00 0. 9.
       23     2     1     2     0     0  0.0000000000e+00  0.0000000000e+00  0.0000000000e+00  1.0240000000e+05  1.0240000000e+05 0. 9.
        2     1     3     0   101     0 -3.8553571883e+04  1.4734358109e+04  3.0297867682e+04  5.1200000000e+04  3.3000000000e-01 0. 9.
       -2     1     3     0     0   101  3.8553571883e+04 -1.4734358109e+04 -3.0297867682e+04  5.1200000000e+04  3.3000000000e-01 0. 9.
#pdf   11  -11  1.000000e+00  1.000000e+00  1.024000e+05  1.000000e+00  1.000000e+00
</event>
<event>
     5  9999  1.000000e+00  1.024000e+05  8.493754e-03  6.416823e-02
       11    -1     0     0     0     0  0.0000000000e+00  0.0000000000e+00  5.1200000000e+04  5.1200000000e+04  0.0000000000e+00 0. 9.
      -11    -1     0     0     0     0  0.0000000000e+00  0.0000000000e+00 -5.1200000000e+04  5.1200000000e+04  0.0000000000e+00 0. 9.
       23     2     1     2     0     0  0.0000000000e+00  0.0000000000e+00  0.0000000000e+00  1.0240000000e+05  1.0240000000e+05 0. 9.
        2     1     3     0   101     0  9.7054216236e+03 -1.7445402707e+04  4.7147669246e+04  5.1200000000e+04  3.3000000000e-01 0. 9.
       -2     1     3     0     0   101 -9.7054216236e+03  1.7445402707e+04 -4.7147669246e+04  5.1200000000e+04  3.3000000000e-01 0. 9.
#pdf   11  -11  1.000000e+00  1.000000e+00  1.024000e+05  1.000000e+00  1.000000e+00
</event>
<event>
     5  9999  1.000000e+00  1.024000e+05  8.493754e-03  6.416823e-02
       11    -1     0     0     0     0  0.0000000000e+00  0.0000000000e+00  5.1200000000e+04  5.1200000000e+04  0.0000000000e+00 0. 9.
      -11    -1     0     0     0     0  0.0000000000e+00  0.0000000000e+00 -5.1200000000e+04  5.1200000000e+04  0.0000000000e+00 0. 9.
       23     2     1     2     0     0  0.0000000000e+00  0.0000000000e+00  0.0000000000e+00  1.0240000000e+05  1.0240000000e+05 0. 9.
        2     1     3     0   101     0  2.2251567966e+03 -5.0906435717e+04  5.0023474196e+03  5.1200000000e+04  3.3000000000e-01 0. 9.
       -2     1     3     0     0   101 -2.2251567966e+03  5.0906435717e+04 -5.0023474196e+03  5.1200000000e+04  3.3000000000e-01 0. 9.
#pdf   11  -11  1.000000e+00  1.000000e+00  1.024000e+05  1.000000e+00  1.000000e+00
</event>
<event>
     5  9999  1.000000e+00  1.024000e+05  8.493754e-03  6.416823e-02
       11    -1     0     0     0     0  0.0000000000e+00  0.0000000000e+00  5.1200000000e+04  5.1200000000e+04  0.0000000000e+00 0. 9.
      -11    -1     0     0     0     0  0.0000000000e+00  0.0000000000e+00 -5.1200000000e+04  5.1200000000e+04  0.0000000000e+00 0. 9.
       23     2     1     2     0     0  0.0000000000e+00  0.0000000000e+00  0.0000000000e+00  1.0240000000e+05  1.0240000000e+05 0. 9.
        2     1     3     0   101     0 -1.6533682010e+04  1.1398640876e+04  4.7097222267e+04  5.1200000000e+04  3.3000000000e-01 0. 9.
       -2     1     3     0     0   101  1.6533682010e+04 -1.1398640876e+04 -4.7097222267e+04  5.1200000000e+04  3.3000000000e-01 0. 9.
#pdf   11  -11  1.000000e+00  1.000000e+00  1.024000e+05  1.000000e+00  1.000000e+00
</event>
<event>
     5  9999  1.000000e+00  1.024000e+05  8.493754e-03  6.416823e-02
       11    -1     0     0     0     0  0.0000000000e+00  0.0000000000e+00  5.1200000000e+04  5.1200000000e+04  0.0000000000e+00 0. 9.
      -11    -1     0     0     0     0  0.0000000000e+00  0.0000000000e+00 -5.1200000000e+04  5.1200000000e+04  0.0000000000e+00 0. 9.
       23     2     1     2     0     0  0.0000000000e+00  0.0000000000e+00  0.0000000000e+00  1.0240000000e+05  1.0240000000e+05 0. 9.
        2     1     3     0   101     0  1.4041623633e+04 -4.7623571685e+04  1.2500729004e+04  5.1200000000e+04  3.3000000000e-01 0. 9.
       -2     1     3     0     0   101 -1.4041623633e+04  4.7623571685e+04 -1.2500729004e+04  5.1200000000e+04  3.3000000000e-01 0. 9.
#pdf   11  -11  1.000000e+00  1.000000e+00  1.024000e+05  1.000000e+00  1.000000e+00
</event>
<event>
     5  9999  1.000000e+00  1.024000e+05  8.493754e-03  6.416823e-02
       11    -1     0     0     0     0  0.0000000000e+00  0.0000000000e+00  5.1200000000e+04  5.1200000000e+04  0.0000000000e+00 0. 9.
      -11    -1     0     0     0     0  0.0000000000e+00  0.0000000000e+00 -5.1200000000e+04  5.1200000000e+04  0.0000000000e+00 0. 9.
       23     2     1     2     0     0  0.0000000000e+00  0.0000000000e+00  0.0000000000e+00  1.0240000000e+05  1.0240000000e+05 0. 9.
        2     1     3     0   101     0 -2.7809647866e+04 -1.8163841830e+04  3.8963294720e+04  5.1200000000e+04  3.3000000000e-01 0. 9.
       -2     1     3     0     0   101  2.7809647866e+04  1.8163841830e+04 -3.8963294720e+04  5.1200000000e+04  3.3000000000e-01 0. 9.
#pdf   11  -11  1.000000e+00  1.000000e+00  1.024000e+05  1.000000e+00  1.000000e+00
</event>
<event>
     5  9999  1.000000e+00  1.024000e+05  8.493754e-03  6.416823e-02
       11    -1     0     0     0     0  0.0000000000e+00  0.0000000000e+00  5.1200000000e+04  5.1200000000e+04  0.0000000000e+00 0. 9.
      -11    -1     0     0     0     0  0.0000000000e+00  0.0000000000e+00 -5.1200000000e+04  5.1200000000e+04  0.0000000000e+00 0. 9.
       23     2     1     2     0     0  0.0000000000e+00  0.0000000000e+00  0.0000000000e+00  1.0240000000e+05  1.0240000000e+05 0. 9.
        2     1     3     0   101     0 -1.3921665638e+04  1.1032247240e+04  4.8019961959e+04  5.1200000000e+04  3.3000000000e-01 0. 9.
       -2     1     3     0     0   101  1.3921665638e+04 -1.1032247240e+04 -4.8019961959e+04  5.1200000000e+04  3.3000000000e-01 0. 9.
#pdf   11  -11  1.000000e+00  1.000000e+00  1.024000e+05  1.000000e+00  1.000000e+00
</event>
<event>
     5  9999  1.000000e+00  1.024000e+05  8.493754e-03  6.416823e-02
       11    -1     0     0     0     0  0.0000000000e+00  0.0000000000e+00  5.1200000000e+04  5.1200000000e+04  0.0000000000e+00 0. 9.
      -11    -1     0     0     0     0  0.0000000000e+00  0.0000000000e+00 -5.1200000000e+04  5.1200000000e+04  0.0000000000e+00 0. 9.
       23     2     1     2     0     0  0.0000000000e+00  0.0000000000e+00  0.0000000000e+00  1.0240000000e+05  1.0240000000e+05 0. 9.
        2     1     3     0   101     0  5.0402368179e+04 -5.0708410161e+03  7.4382695050e+03  5.1200000000e+04  3.3000000000e-01 0. 9.
       -2     1     3     0     0   101 -5.0402368179e+04  5.0708410161e+03 -7.4382695050e+03  5.1200000000e+04  3.3000000000e-01 0. 9.
#pdf   11  -11  1.000000e+00  1.000000e+00  1.024000e+05  1.000000e+00  1.000000e+00
</event>
<event>
     5  9999  1.000000e+00  1.024000e+05  8.493754e-03  6.416823e-02
       11    -1     0     0     0     0  0.0000000000e+00  0.0000000000e+00  5.1200000000e+04  5.1200000000e+04  0.0000000000e+00 0. 9.
      -11    -1     0     0     0     0  0.0000000000e+00  0.0000000000e+00 -5.1200000000e+04  5.1200000000e+04  0.0000000000e+00 0. 9.
       23     2     1     2     0     0  0.0000000000e+00  0.0000000000e+00  0.0000000000e+00  1.0240000000e+05  1.0240000000e+05 0. 9.
        2     1     3     0   101     0  2.3634121660e+04  2.5609982280e+04  3.7509960022e+04  5.1200000000e+04  3.3000000000e-01 0. 9.
       -2     1     3     0     0   101 -2.3634121660e+04 -2.5609982280e+04 -3.7509960022e+04  5.1200000000e+04  3.3000000000e-01 0. 9.
#pdf   11  -11  1.000000e+00  1.000000e+00  1.024000e+05  1.000000e+00  1.000000e+00
</event>
<event>
     5  9999  1.000000e+00  1.024000e+05  8.493754e-03  6.416823e-02
       11    -1     0     0     0     0  0.0000000000e+00  0.0000000000e+00  5.1200000000e+04  5.1200000000e+04  0.0000000000e+00 0. 9.
      -11    -1     0     0     0     0  0.0000000000e+00  0.0000000000e+00 -5.1200000000e+04  5.1200000000e+04  0.0000000000e+00 0. 9.
       23     2     1     2     0     0  0.0000000000e+00  0.0000000000e+00  0.0000000000e+00  1.0240000000e+05  1.0240000000e+05 0. 9.
        2     1     3     0   101     0  3.5764022878e+04  2.2697346913e+04 -2.8761173666e+04  5.1200000000e+04  3.3000000000e-01 0. 9.
       -2     1     3     0     0   101 -3.5764022878e+04 -2.2697346913e+04  2.8761173666e+04  5.1200000000e+04  3.3000000000e-01 0. 9.
#pdf   11  -11  1.000000e+00  1.000000e+00  1.024000e+05  1.000000e+00  1.000000e+00
</event>
<event>
     5  9999  1.000000e+00  1.024000e+05  8.493754e-03  6.416823e-02
       11    -1     0     0     0     0  0.0000000000e+00  0.0000000000e+00  5.1200000000e+04  5.1200000000e+04  0.0000000000e+00 0. 9.
      -11    -1     0     0     0     0  0.0000000000e+00  0.0000000000e+00 -5.1200000000e+04  5.1200000000e+04  0.0000000000e+00 0. 9.
       23     2     1     2     0     0  0.0000000000e+00  0.0000000000e+00  0.0000000000e+00  1.0240000000e+05  1.0240000000e+05 0. 9.
        2     1     3     0   101     0  1.8115766322e+04 -4.1625094239e+04  2.3677215631e+04  5.1200000000e+04  3.3000000000e-01 0. 9.
       -2     1     3     0     0   101 -1.8115766322e+04  4.1625094239e+04 -2.3677215631e+04  5.1200000000e+04  3.3000000000e-01 0. 9.
#pdf   11  -11  1.000000e+00  1.000000e+00  1.024000e+05  1.000000e+00  1.000000e+00
</event>
<event>
     5  9999  1.000000e+00  1.024000e+05  8.493754e-03  6.416823e-02
       11    -1     0     0     0     0  0.0000000000e+00  0.0000000000e+00  5.1200000000e+04  5.1200000000e+04  0.0000000000e+00 0. 9.
      -11    -1     0     0     0     0  0.0000000000e+00  0.0000000000e+00 -5.1200000000e+04  5.1200000000e+04  0.0000000000e+00 0. 9.
       23     2     1     2     0     0  0.0000000000e+00  0.0000000000e+00  0.0000000000e+00  1.0240000000e+05  1.0240000000e+05 0. 9.
        2     1     3     0   101     0  1.1578165464e+04 -2.6748729351e+04  4.2093842335e+04  5.1200000000e+04  3.3000000000e-01 0. 9.
       -2     1     3     0     0   101 -1.1578165464e+04  2.6748729351e+04 -4.2093842335e+04  5.1200000000e+04  3.3000000000e-01 0. 9.
#pdf   11  -11  1.000000e+00  1.000000e+00  1.024000e+05  1.000000e+00  1.000000e+00
</event>
<event>
     5  9999  1.000000e+00  1.024000e+05  8.493754e-03  6.416823e-02
       11    -1     0     0     0     0  0.0000000000e+00  0.0000000000e+00  5.1200000000e+04  5.1200000000e+04  0.0000000000e+00 0. 9.
      -11    -1     0     0     0     0  0.0000000000e+00  0.0000000000e+00 -5.1200000000e+04  5.1200000000e+04  0.0000000000e+00 0. 9.
       23     2     1     2     0     0  0.0000000000e+00  0.0000000000e+00  0.0000000000e+00  1.0240000000e+05  1.0240000000e+05 0. 9.
        2     1     3     0   101     0 -6.0966325862e+03  3.8477477276e+04  3.3222805624e+04  5.1200000000e+04  3.3000000000e-01 0. 9.
       -2     1     3     0     0   101  6.0966325862e+03 -3.8477477276e+04 -3.3222805624e+04  5.1200000000e+04  3.3000000000e-01 0. 9.
#pdf   11  -11  1.000000e+00  1.000000e+00  1.024000e+05  1.000000e+00  1.000000e+00
</event>
<event>
     5  9999  1.000000e+00  1.024000e+05  8.493754e-03  6.416823e-02
       11    -1     0     0     0     0  0.0000000000e+00  0.0000000000e+00  5.1200000000e+04  5.1200000000e+04  0.0000000000e+00 0. 9.
      -11    -1     0     0     0     0  0.0000000000e+00  0.0000000000e+00 -5.1200000000e+04  5.1200000000e+04  0.0000000000e+00 0. 9.
       23     2     1     2     0     0  0.0000000000e+00  0.0000000000e+00  0.0000000000e+00  1.0240000000e+05  1.0240000000e+05 0. 9.
        2     1     3     0   101     0  2.9109768809e+04  4.1241107708e+04 -8.5575928141e+03  5.1200000000e+04  3.3000000000e-01 0. 9.
       -2     1     3     0     0   101 -2.9109768809e+04 -4.1241107708e+04  8.5575928141e+03  5.1200000000e+04  3.3000000000e-01 0. 9.
#pdf   11  -11  1.000000e+00  1.000000e+00  1.024000e+05  1.000000e+00  1.000000e+00
</event>
<event>
     5  9999  1.000000e+00  1.024000e+05  8.493754e-03  6.416823e-02
       11    -1     0     0     0     0  0.0000000000e+00  0.0000000000e+00  5.1200000000e+04  5.1200000000e+04  0.0000000000e+00 0. 9.
      -11    -1     0     0     0     0  0.0000000000e+00  0.0000000000e+00 -5.1200000000e+04  5.1200000000e+04  0.0000000000e+00 0. 9.
       23     2     1     2     0     0  0.0000000000e+00  0.0000000000e+00  0.0000000000e+00  1.0240000000e+05  1.0240000000e+05 0. 9.
        2     1     3     0   101     0 -4.7602901042e+04 -1.0317967319e+04 -1.5777939114e+04  5.1200000000e+04  3.3000000000e-01 0. 9.
       -2     1     3     0     0   101  4.7602901042e+04  1.0317967319e+04  1.5777939114e+04  5.1200000000e+04  3.3000000000e-01 0. 9.
#pdf   11  -11  1.000000e+00  1.000000e+00  1.024000e+05  1.000000e+00  1.000000e+00
</event>
<event>
     5  9999  1.000000e+00  1.024000e+05  8.493754e-03  6.416823e-02
       11    -1     0     0     0     0  0.0000000000e+00  0.0000000000e+00  5.1200000000e+04  5.1200000000e+04  0.0000000000e+00 0. 9.
      -11    -1     0     0     0     0  0.0000000000e+00  0.0000000000e+00 -5.1200000000e+04  5.1200000000e+04  0.0000000000e+00 0. 9.
       23     2     1     2     0     0  0.0000000000e+00  0.0000000000e+00  0.0000000000e+00  1.0240000000e+05  1.0240000000e+05 0. 9.
        2     1     3     0   101     0 -3.1473054796e+04  1.7569694180e+04  3.6361967330e+04  5.1200000000e+04  3.3000000000e-01 0. 9.
       -2     1     3     0     0   101  3.1473054796e+04 -1.7569694180e+04 -3.6361967330e+04  5.1200000000e+04  3.3000000000e-01 0. 9.
#pdf   11  -11  1.000000e+00  1.000000e+00  1.024000e+05  1.000000e+00  1.000000e+00
</event>
<event>
     5  9999  1.000000e+00  1.024000e+05  8.493754e-03  6.416823e-02
       11    -1     0     0     0     0  0.0000000000e+00  0.0000000000e+00  5.1200000000e+04  5.1200000000e+04  0.0000000000e+00 0. 9.
      -11    -1     0     0     0     0  0.0000000000e+00  0.0000000000e+00 -5.1200000000e+04  5.1200000000e+04  0.0000000000e+00 0. 9.
       23     2     1     2     0     0  0.0000000000e+00  0.0000000000e+00  0.0000000000e+00  1.0240000000e+05  1.0240000000e+05 0. 9.
        2     1     3     0   101     0 -1.8956785018e+04  3.1817153052e+04  3.5351790243e+04  5.1200000000e+04  3.3000000000e-01 0. 9.
       -2     1     3     0     0   101  1.8956785018e+04 -3.1817153052e+04 -3.5351790243e+04  5.1200000000e+04  3.3000000000e-01 0. 9.
#pdf   11  -11  1.000000e+00  1.000000e+00  1.024000e+05  1.000000e+00  1.000000e+00
</event>
<event>
     5  9999  1.000000e+00  1.024000e+05  8.493754e-03  6.416823e-02
       11    -1     0     0     0     0  0.0000000000e+00  0.0000000000e+00  5.1200000000e+04  5.1200000000e+04  0.0000000000e+00 0. 9.
      -11    -1     0     0     0     0  0.0000000000e+00  0.0000000000e+00 -5.1200000000e+04  5.1200000000e+04  0.0000000000e+00 0. 9.
       23     2     1     2     0     0  0.0000000000e+00  0.0000000000e+00  0.0000000000e+00  1.0240000000e+05  1.0240000000e+05 0. 9.
        2     1     3     0   101     0 -2.3939096553e+04 -3.5446395893e+04  2.8140943025e+04  5.1200000000e+04  3.3000000000e-01 0. 9.
       -2     1     3     0     0   101  2.3939096553e+04  3.5446395893e+04 -2.8140943025e+04  5.1200000000e+04  3.3000000000e-01 0. 9.
#pdf   11  -11  1.000000e+00  1.000000e+00  1.024000e+05  1.000000e+00  1.000000e+00
</event>
<event>
     5  9999  1.000000e+00  1.024000e+05  8.493754e-03  6.416823e-02
       11    -1     0     0     0     0  0.0000000000e+00  0.0000000000e+00  5.1200000000e+04  5.1200000000e+04  0.0000000000e+00 0. 9.
      -11    -1     0     0     0     0  0.0000000000e+00  0.0000000000e+00 -5.1200000000e+04  5.1200000000e+04  0.0000000000e+00 0. 9.
       23     2     1     2     0     0  0.0000000000e+00  0.0000000000e+00  0.0000000000e+00  1.0240000000e+05  1.0240000000e+05 0. 9.
        2     1     3     0   101     0 -1.8111286413e+04 -4.7827487536e+04 -2.4398238427e+03  5.1200000000e+04  3.3000000000e-01 0. 9.
       -2     1     3     0     0   101  1.8111286413e+04  4.7827487536e+04  2.4398238427e+03  5.1200000000e+04  3.3000000000e-01 0. 9.
#pdf   11  -11  1.000000e+00  1.000000e+00  1.024000e+05  1.000000e+00  1.000000e+00
</event>
<event>
     5  9999  1.000000e+00  1.024000e+05  8.493754e-03  6.416823e-02
       11    -1     0     0     0     0  0.0000000000e+00  0.0000000000e+00  5.1200000000e+04  5.1200000000e+04  0.0000000000e+00 0. 9.
      -11    -1     0     0     0     0  0.0000000000e+00  0.0000000000e+00 -5.1200000000e+04  5.1200000000e+04  0.0000000000e+00 0. 9.
       23     2     1     2     0     0  0.0000000000e+00  0.0000000000e+00  0.0000000000e+00  1.0240000000e+05  1.0240000000e+05 0. 9.
        2     1     3     0   101     0 -3.8640942982e+04 -2.3338584377e+04  2.4158394083e+04  5.1200000000e+04  3.3000000000e-01 0. 9.
       -2     1     3     0     0   101  3.8640942982e+04  2.3338584377e+04 -2.4158394083e+04  5.1200000000e+04  3.3000000000e-01 0. 9.
#pdf   11  -11  1.000000e+00  1.000000e+00  1.024000e+05  1.000000e+00  1.000000e+00
</event>
<event>
     5  9999  1.000000e+00  1.024000e+05  8.493754e-03  6.416823e-02
       11    -1     0     0     0     0  0.0000000000e+00  0.0000000000e+00  5.1200000000e+04  5.1200000000e+04  0.0000000000e+00 0. 9.
      -11    -1     0     0     0     0  0.0000000000e+00  0.0000000000e+00 -5.1200000000e+04  5.1200000000e+04  0.0000000000e+00 0. 9.
       23     2     1     2     0     0  0.0000000000e+00  0.0000000000e+00  0.0000000000e+00  1.0240000000e+05  1.0240000000e+05 0. 9.
        2     1     3     0   101     0 -4.1055607584e+04  7.2392513487e+03  2.9723228723e+04  5.1200000000e+04  3.3000000000e-01 0. 9.
       -2     1     3     0     0   101  4.1055607584e+04 -7.2392513487e+03 -2.9723228723e+04  5.1200000000e+04  3.3000000000e-01 0. 9.
#pdf   11  -11  1.000000e+00  1.000000e+00  1.024000e+05  1.000000e+00  1.000000e+00
</event>
<event>
     5  9999  1.000000e+00  1.024000e+05  8.493754e-03  6.416823e-02
       11    -1     0     0     0     0  0.0000000000e+00  0.0000000000e+00  5.1200000000e+04  5.1200000000e+04  0.0000000000e+00 0. 9.
      -11    -1     0     0     0     0  0.0000000000e+00  0.0000000000e+00 -5.1200000000e+04  5.1200000000e+04  0.0000000000e+00 0. 9.
       23     2     1     2     0     0  0.0000000000e+00  0.0000000000e+00  0.0000000000e+00  1.0240000000e+05  1.0240000000e+05 0. 9.
        2     1     3     0   101     0 -3.7368984663e+04 -2.3272480551e+04  2.6141741222e+04  5.1200000000e+04  3.3000000000e-01 0. 9.
       -2     1     3     0     0   101  3.7368984663e+04  2.3272480551e+04 -2.6141741222e+04  5.1200000000e+04  3.3000000000e-01 0. 9.
#pdf   11  -11  1.000000e+00  1.000000e+00  1.024000e+05  1.000000e+00  1.000000e+00
</event>
<event>
     5  9999  1.000000e+00  1.024000e+05  8.493754e-03  6.416823e-02
       11    -1     0     0     0     0  0.0000000000e+00  0.0000000000e+00  5.1200000000e+04  5.1200000000e+04  0.0000000000e+00 0. 9.
      -11    -1     0     0     0     0  0.0000000000e+00  0.0000000000e+00 -5.1200000000e+04  5.1200000000e+04  0.0000000000e+00 0. 9.
       23     2     1     2     0     0  0.0000000000e+00  0.0000000000e+00  0.0000000000e+00  1.0240000000e+05  1.0240000000e+05 0. 9.
        2     1     3     0   101     0  6.5716837591e+03  1.9781655593e+04 -4.6764720404e+04  5.1200000000e+04  3.3000000000e-01 0. 9.
       -2     1     3     0     0   101 -6.5716837591e+03 -1.9781655593e+04  4.6764720404e+04  5.1200000000e+04  3.3000000000e-01 0. 9.
#pdf   11  -11  1.000000e+00  1.000000e+00  1.024000e+05  1.000000e+00  1.000000e+00
</event>
<event>
     5  9999  1.000000e+00  1.024000e+05  8.493754e-03  6.416823e-02
       11    -1     0     0     0     0  0.0000000000e+00  0.0000000000e+00  5.1200000000e+04  5.1200000000e+04  0.0000000000e+00 0. 9.
      -11    -1     0     0     0     0  0.0000000000e+00  0.0000000000e+00 -5.1200000000e+04  5.1200000000e+04  0.0000000000e+00 0. 9.
       23     2     1     2     0     0  0.0000000000e+00  0.0000000000e+00  0.0000000000e+00  1.0240000000e+05  1.0240000000e+05 0. 9.
        2     1     3     0   101     0  4.9959346711e+04 -1.0940744276e+04  2.4091058062e+03  5.1200000000e+04  3.3000000000e-01 0. 9.
       -2     1     3     0     0   101 -4.9959346711e+04  1.0940744276e+04 -2.4091058062e+03  5.1200000000e+04  3.3000000000e-01 0. 9.
#pdf   11  -11  1.000000e+00  1.000000e+00  1.024000e+05  1.000000e+00  1.000000e+00
</event>
<event>
     5  9999  1.000000e+00  1.024000e+05  8.493754e-03  6.416823e-02
       11    -1     0     0     0     0  0.0000000000e+00  0.0000000000e+00  5.1200000000e+04  5.1200000000e+04  0.0000000000e+00 0. 9.
      -11    -1     0     0     0     0  0.0000000000e+00  0.0000000000e+00 -5.1200000000e+04  5.1200000000e+04  0.0000000000e+00 0. 9.
       23     2     1     2     0     0  0.0000000000e+00  0.0000000000e+00  0.0000000000e+00  1.0240000000e+05  1.0240000000e+05 0. 9.
        2     1     3     0   101     0  1.0111608707e+04 -2.0907858476e+04  4.5629560848e+04  5.1200000000e+04  3.3000000000e-01 0. 9.
       -2     1     3     0     0   101 -1.0111608707e+04  2.0907858476e+04 -4.5629560848e+04  5.1200000000e+04  3.3000000000e-01 0. 9.
#pdf   11  -11  1.000000e+00  1.000000e+00  1.024000e+05  1.000000e+00  1.000000e+00
</event>
<event>
     5  9999  1.000000e+00  1.024000e+05  8.493754e-03  6.416823e-02
       11    -1     0     0     0     0  0.0000000000e+00  0.0000000000e+00  5.1200000000e+04  5.1200000000e+04  0.0000000000e+00 0. 9.
      -11    -1     0     0     0     0  0.0000000000e+00  0.0000000000e+00 -5.1200000000e+04  5.1200000000e+04  0.0000000000e+00 0. 9.
       23     2     1     2     0     0  0.0000000000e+00  0.0000000000e+00  0.0000000000e+00  1.0240000000e+05  1.0240000000e+05 0. 9.
        2     1     3     0   101     0  3.4562473249e+04  3.4907104499e+04  1.4435009467e+04  5.1200000000e+04  3.3000000000e-01 0. 9.
       -2     1     3     0     0   101 -3.4562473249e+04 -3.4907104499e+04 -1.4435009467e+04  5.1200000000e+04  3.3000000000e-01 0. 9.
#pdf   11  -11  1.000000e+00  1.000000e+00  1.024000e+05  1.000000e+00  1.000000e+00
</event>
<event>
     5  9999  1.000000e+00  1.024000e+05  8.493754e-03  6.416823e-02
       11    -1     0     0     0     0  0.0000000000e+00  0.0000000000e+00  5.1200000000e+04  5.1200000000e+04  0.0000000000e+00 0. 9.
      -11    -1     0     0     0     0  0.0000000000e+00  0.0000000000e+00 -5.1200000000e+04  5.1200000000e+04  0.0000000000e+00 0. 9.
       23     2     1     2     0     0  0.0000000000e+00  0.0000000000e+00  0.0000000000e+00  1.0240000000e+05  1.0240000000e+05 0. 9.
        2     1     3     0   101     0  2.1360966272e+04  4.3126246427e+04  1.7472148952e+04  5.1200000000e+04  3.3000000000e-01 0. 9.
       -2     1     3     0     0   101 -2.1360966272e+04 -4.3126246427e+04 -1.7472148952e+04  5.1200000000e+04  3.3000000000e-01 0. 9.
#pdf   11  -11  1.000000e+00  1.000000e+00  1.024000e+05  1.000000e+00  1.000000e+00
</event>
<event>
     5  9999  1.000000e+00  1.024000e+05  8.493754e-03  6.416823e-02
       11    -1     0     0     0     0  0.0000000000e+00  0.0000000000e+00  5.1200000000e+04  5.1200000000e+04  0.0000000000e+00 0. 9.
      -11    -1     0     0     0     0  0.0000000000e+00  0.0000000000e+00 -5.1200000000e+04  5.1200000000e+04  0.0000000000e+00 0. 9.
       23     2     1     2     0     0  0.0000000000e+00  0.0000000000e+00  0.0000000000e+00  1.0240000000e+05  1.0240000000e+05 0. 9.
        2     1     3     0   101     0 -3.8252841657e+04  3.0664046280e+04 -1.4760635853e+04  5.1200000000e+04  3.3000000000e-01 0. 9.
       -2     1     3     0     0   101  3.8252841657e+04 -3.0664046280e+04  1.4760635853e+04  5.1200000000e+04  3.3000000000e-01 0. 9.
#pdf   11  -11  1.000000e+00  1.000000e+00  1.024000e+05  1.000000e+00  1.000000e+00
</event>
<event>
     5  9999  1.000000e+00  1.024000e+05  8.493754e-03  6.416823e-02
       11    -1     0     0     0     0  0.0000000000e+00  0.0000000000e+00  5.1200000000e+04  5.1200000000e+04  0.0000000000e+00 0. 9.
      -11    -1     0     0     0     0  0.0000000000e+00  0.0000000000e+00 -5.1200000000e+04  5.1200000000e+04  0.0000000000e+00 0. 9.
       23     2     1     2     0     0  0.0000000000e+00  0.0000000000e+00  0.0000000000e+00  1.0240000000e+05  1.0240000000e+05 0. 9.
        2     1     3     0   101     0  1.0706123622e+04 -4.3691734689e+04  2.4450996642e+04  5.1200000000e+04  3.3000000000e-01 0. 9.
       -2     1     3     0     0   101 -1.0706123622e+04  4.3691734689e+04 -2.4450996642e+04  5.1200000000e+04  3.3000000000e-01 0. 9.
#pdf   11  -11  1.000000e+00  1.000000e+00  1.024000e+05  1.000000e+00  1.000000e+00
</event>
<event>
     5  9999  1.000000e+00  1.024000e+05  8.493754e-03  6.416823e-02
       11    -1     0     0     0     0  0.0000000000e+00  0.0000000000e+00  5.1200000000e+04  5.1200000000e+04  0.0000000000e+00 0. 9.
      -11    -1     0     0     0     0  0.0000000000e+00  0.0000000000e+00 -5.1200000000e+04  5.1200000000e+04  0.0000000000e+00 0. 9.
       23     2     1     2     0     0  0.0000000000e+00  0.0000000000e+00  0.0000000000e+00  1.0240000000e+05  1.0240000000e+05 0. 9.
        2     1     3     0   101     0  1.8524317194e+04  2.6885942346e+04  3.9439013382e+04  5.1200000000e+04  3.3000000000e-01 0. 9.
       -2     1     3     0     0   101 -1.8524317194e+04 -2.6885942346e+04 -3.9439013382e+04  5.1200000000e+04  3.3000000000e-01 0. 9.
#pdf   11  -11  1.000000e+00  1.000000e+00  1.024000e+05  1.000000e+00  1.000000e+00
</event>
<event>
     5  9999  1.000000e+00  1.024000e+05  8.493754e-03  6.416823e-02
       11    -1     0     0     0     0  0.0000000000e+00  0.0000000000e+00  5.1200000000e+04  5.1200000000e+04  0.0000000000e+00 0. 9.
      -11    -1     0     0     0     0  0.0000000000e+00  0.0000000000e+00 -5.1200000000e+04  5.1200000000e+04  0.0000000000e+00 0. 9.
       23     2     1     2     0     0  0.0000000000e+00  0.0000000000e+00  0.0000000000e+00  1.0240000000e+05  1.0240000000e+05 0. 9.
        2     1     3     0   101     0  3.8300172170e+04  1.4478638509e+04  3.0739320724e+04  5.1200000000e+04  3.3000000000e-01 0. 9.
       -2     1     3     0     0   101 -3.8300172170e+04 -1.4478638509e+04 -3.0739320724e+04  5.1200000000e+04  3.3000000000e-01 0. 9.
#pdf   11  -11  1.000000e+00  1.000000e+00  1.024000e+05  1.000000e+00  1.000000e+00
</event>
<event>
     5  9999  1.000000e+00  1.024000e+05  8.493754e-03  6.416823e-02
       11    -1     0     0     0     0  0.0000000000e+00  0.0000000000e+00  5.1200000000e+04  5.1200000000e+04  0.0000000000e+00 0. 9.
      -11    -1     0     0     0     0  0.0000000000e+00  0.0000000000e+00 -5.1200000000e+04  5.1200000000e+04  0.0000000000e+00 0. 9.
       23     2     1     2     0     0  0.0000000000e+00  0.0000000000e+00  0.0000000000e+00  1.0240000000e+05  1.0240000000e+05 0. 9.
        2     1     3     0   101     0 -4.8720391352e+03 -1.0634925132e+03  5.0956571885e+04  5.1200000000e+04  3.3000000000e-01 0. 9.
       -2     1     3     0     0   101  4.8720391352e+03  1.0634925132e+03 -5.0956571885e+04  5.1200000000e+04  3.3000000000e-01 0. 9.
#pdf   11  -11  1.000000e+00  1.000000e+00  1.024000e+05  1.000000e+00  1.000000e+00
</event>
<event>
     5  9999  1.000000e+00  1.024000e+05  8.493754e-03  6.416823e-02
       11    -1     0     0     0     0  0.0000000000e+00  0.0000000000e+00  5.1200000000e+04  5.1200000000e+04  0.0000000000e+00 0. 9.
      -11    -1     0     0     0     0  0.0000000000e+00  0.0000000000e+00 -5.1200000000e+04  5.1200000000e+04  0.0000000000e+00 0. 9.
       23     2     1     2     0     0  0.0000000000e+00  0.0000000000e+00  0.0000000000e+00  1.0240000000e+05  1.0240000000e+05 0. 9.
        2     1     3     0   101     0 -6.4692505340e+03  2.2727940920e+04  4.5420584529e+04  5.1200000000e+04  3.3000000000e-01 0. 9.
       -2     1     3     0     0   101  6.4692505340e+03 -2.2727940920e+04 -4.5420584529e+04  5.1200000000e+04  3.3000000000e-01 0. 9.
#pdf   11  -11  1.000000e+00  1.000000e+00  1.024000e+05  1.000000e+00  1.000000e+00
</event>
<event>
     5  9999  1.000000e+00  1.024000e+05  8.493754e-03  6.416823e-02
       11    -1     0     0     0     0  0.0000000000e+00  0.0000000000e+00  5.1200000000e+04  5.1200000000e+04  0.0000000000e+00 0. 9.
      -11    -1     0     0     0     0  0.0000000000e+00  0.0000000000e+00 -5.1200000000e+04  5.1200000000e+04  0.0000000000e+00 0. 9.
       23     2     1     2     0     0  0.0000000000e+00  0.0000000000e+00  0.0000000000e+00  1.0240000000e+05  1.0240000000e+05 0. 9.
        2     1     3     0   101     0  2.2479887119e+04 -4.3763898493e+04  1.4170951405e+04  5.1200000000e+04  3.3000000000e-01 0. 9.
       -2     1     3     0     0   101 -2.2479887119e+04  4.3763898493e+04 -1.4170951405e+04  5.1200000000e+04  3.3000000000e-01 0. 9.
#pdf   11  -11  1.000000e+00  1.000000e+00  1.024000e+05  1.000000e+00  1.000000e+00
</event>
<event>
     5  9999  1.000000e+00  1.024000e+05  8.493754e-03  6.416823e-02
       11    -1     0     0     0     0  0.0000000000e+00  0.0000000000e+00  5.1200000000e+04  5.1200000000e+04  0.0000000000e+00 0. 9.
      -11    -1     0     0     0     0  0.0000000000e+00  0.0000000000e+00 -5.1200000000e+04  5.1200000000e+04  0.0000000000e+00 0. 9.
       23     2     1     2     0     0  0.0000000000e+00  0.0000000000e+00  0.0000000000e+00  1.0240000000e+05  1.0240000000e+05 0. 9.
        2     1     3     0   101     0 -4.9872101124e+04  8.7452788934e+03 -7.5982646974e+03  5.1200000000e+04  3.3000000000e-01 0. 9.
       -2     1     3     0     0   101  4.9872101124e+04 -8.7452788934e+03  7.5982646974e+03  5.1200000000e+04  3.3000000000e-01 0. 9.
#pdf   11  -11  1.000000e+00  1.000000e+00  1.024000e+05  1.000000e+00  1.000000e+00
</event>
<event>
     5  9999  1.000000e+00  1.024000e+05  8.493754e-03  6.416823e-02
       11    -1     0     0     0     0  0.0000000000e+00  0.0000000000e+00  5.1200000000e+04  5.1200000000e+04  0.0000000000e+00 0. 9.
      -11    -1     0     0     0     0  0.0000000000e+00  0.0000000000e+00 -5.1200000000e+04  5.1200000000e+04  0.0000000000e+00 0. 9.
       23     2     1     2     0     0  0.0000000000e+00  0.0000000000e+00  0.0000000000e+00  1.0240000000e+05  1.0240000000e+05 0. 9.
        2     1     3     0   101     0 -3.1962728575e+04 -1.2977910867e+04  3.7833818356e+04  5.1200000000e+04  3.3000000000e-01 0. 9.
       -2     1     3     0     0   101  3.1962728575e+04  1.2977910867e+04 -3.7833818356e+04  5.1200000000e+04  3.3000000000e-01 0. 9.
#pdf   11  -11  1.000000e+00  1.000000e+00  1.024000e+05  1.000000e+00  1.000000e+00
</event>
<event>
     5  9999  1.000000e+00  1.024000e+05  8.493754e-03  6.416823e-02
       11    -1     0     0     0     0  0.0000000000e+00  0.0000000000e+00  5.1200000000e+04  5.1200000000e+04  0.0000000000e+00 0. 9.
      -11    -1     0     0     0     0  0.0000000000e+00  0.0000000000e+00 -5.1200000000e+04  5.1200000000e+04  0.0000000000e+00 0. 9.
       23     2     1     2     0     0  0.0000000000e+00  0.0000000000e+00  0.0000000000e+00  1.0240000000e+05  1.0240000000e+05 0. 9.
        2     1     3     0   101     0  2.6166916363e+04 -2.5230006418e+04  3.6057998615e+04  5.1200000000e+04  3.3000000000e-01 0. 9.
       -2     1     3     0     0   101 -2.6166916363e+04  2.5230006418e+04 -3.6057998615e+04  5.1200000000e+04  3.3000000000e-01 0. 9.
#pdf   11  -11  1.000000e+00  1.000000e+00  1.024000e+05  1.000000e+00  1.000000e+00
</event>
<event>
     5  9999  1.000000e+00  1.024000e+05  8.493754e-03  6.416823e-02
       11    -1     0     0     0     0  0.0000000000e+00  0.0000000000e+00  5.1200000000e+04  5.1200000000e+04  0.0000000000e+00 0. 9.
      -11    -1     0     0     0     0  0.0000000000e+00  0.0000000000e+00 -5.1200000000e+04  5.1200000000e+04  0.0000000000e+00 0. 9.
       23     2     1     2     0     0  0.0000000000e+00  0.0000000000e+00  0.0000000000e+00  1.0240000000e+05  1.0240000000e+05 0. 9.
        2     1     3     0   101     0 -2.4367875479e+04  2.1805809738e+04  3.9397376895e+04  5.1200000000e+04  3.3000000000e-01 0. 9.
       -2     1     3     0     0   101  2.4367875479e+04 -2.1805809738e+04 -3.9397376895e+04  5.1200000000e+04  3.3000000000e-01 0. 9.
#pdf   11  -11  1.000000e+00  1.000000e+00  1.024000e+05  1.000000e+00  1.000000e+00
</event>
</LesHouchesEvents>
