<LesHouchesEvents version="1.0">
<!--
  File written by Pythia8::LHAup on 07 Jun 2015 at 18:23:44
-->
<init>
  11  -11  8.000000e+02  8.000000e+02  0  0  0  0  3  1
  7.718678e-02  2.676736e-10  1.000000e+00   9999
</init>
<event>
     5  9999  1.000000e+00  1.600000e+03  8.079897e-03  9.131846e-02
       11    -1     0     0     0     0  0.0000000000e+00  0.0000000000e+00  8.0000000000e+02  8.0000000000e+02  0.0000000000e+00 0. 9.
      -11    -1     0     0     0     0  0.0000000000e+00  0.0000000000e+00 -8.0000000000e+02  8.0000000000e+02  0.0000000000e+00 0. 9.
       23     2     1     2     0     0  0.0000000000e+00  0.0000000000e+00  0.0000000000e+00  1.6000000000e+03  1.6000000000e+03 0. 9.
        2     1     3     0   101     0 -1.2762198876e+02 -6.7094302613e+02  4.1659089617e+02  8.0000000000e+02  3.3000000000e-01 0. 9.
       -2     1     3     0     0   101  1.2762198876e+02  6.7094302613e+02 -4.1659089617e+02  8.0000000000e+02  3.3000000000e-01 0. 9.
#pdf   11  -11  1.000000e+00  1.000000e+00  1.600000e+03  1.000000e+00  1.000000e+00
</event>
<event>
     5  9999  1.000000e+00  1.600000e+03  8.079897e-03  9.131846e-02
       11    -1     0     0     0     0  0.0000000000e+00  0.0000000000e+00  8.0000000000e+02  8.0000000000e+02  0.0000000000e+00 0. 9.
      -11    -1     0     0     0     0  0.0000000000e+00  0.0000000000e+00 -8.0000000000e+02  8.0000000000e+02  0.0000000000e+00 0. 9.
       23     2     1     2     0     0  0.0000000000e+00  0.0000000000e+00  0.0000000000e+00  1.6000000000e+03  1.6000000000e+03 0. 9.
        2     1     3     0   101     0  3.6527426864e+02  5.5848771965e+01  7.0954599177e+02  8.0000000000e+02  3.3000000000e-01 0. 9.
       -2     1     3     0     0   101 -3.6527426864e+02 -5.5848771965e+01 -7.0954599177e+02  8.0000000000e+02  3.3000000000e-01 0. 9.
#pdf   11  -11  1.000000e+00  1.000000e+00  1.600000e+03  1.000000e+00  1.000000e+00
</event>
<event>
     5  9999  1.000000e+00  1.600000e+03  8.079897e-03  9.131846e-02
       11    -1     0     0     0     0  0.0000000000e+00  0.0000000000e+00  8.0000000000e+02  8.0000000000e+02  0.0000000000e+00 0. 9.
      -11    -1     0     0     0     0  0.0000000000e+00  0.0000000000e+00 -8.0000000000e+02  8.0000000000e+02  0.0000000000e+00 0. 9.
       23     2     1     2     0     0  0.0000000000e+00  0.0000000000e+00  0.0000000000e+00  1.6000000000e+03  1.6000000000e+03 0. 9.
        2     1     3     0   101     0 -7.4241310372e+02  2.6157551532e+02  1.4283180429e+02  8.0000000000e+02  3.3000000000e-01 0. 9.
       -2     1     3     0     0   101  7.4241310372e+02 -2.6157551532e+02 -1.4283180429e+02  8.0000000000e+02  3.3000000000e-01 0. 9.
#pdf   11  -11  1.000000e+00  1.000000e+00  1.600000e+03  1.000000e+00  1.000000e+00
</event>
<event>
     5  9999  1.000000e+00  1.600000e+03  8.079897e-03  9.131846e-02
       11    -1     0     0     0     0  0.0000000000e+00  0.0000000000e+00  8.0000000000e+02  8.0000000000e+02  0.0000000000e+00 0. 9.
      -11    -1     0     0     0     0  0.0000000000e+00  0.0000000000e+00 -8.0000000000e+02  8.0000000000e+02  0.0000000000e+00 0. 9.
       23     2     1     2     0     0  0.0000000000e+00  0.0000000000e+00  0.0000000000e+00  1.6000000000e+03  1.6000000000e+03 0. 9.
        2     1     3     0   101     0  3.4471077672e+02  5.7868445729e+02  4.3162329688e+02  8.0000000000e+02  3.3000000000e-01 0. 9.
       -2     1     3     0     0   101 -3.4471077672e+02 -5.7868445729e+02 -4.3162329688e+02  8.0000000000e+02  3.3000000000e-01 0. 9.
#pdf   11  -11  1.000000e+00  1.000000e+00  1.600000e+03  1.000000e+00  1.000000e+00
</event>
<event>
     5  9999  1.000000e+00  1.600000e+03  8.079897e-03  9.131846e-02
       11    -1     0     0     0     0  0.0000000000e+00  0.0000000000e+00  8.0000000000e+02  8.0000000000e+02  0.0000000000e+00 0. 9.
      -11    -1     0     0     0     0  0.0000000000e+00  0.0000000000e+00 -8.0000000000e+02  8.0000000000e+02  0.0000000000e+00 0. 9.
       23     2     1     2     0     0  0.0000000000e+00  0.0000000000e+00  0.0000000000e+00  1.6000000000e+03  1.6000000000e+03 0. 9.
        2     1     3     0   101     0 -3.9757626394e+01  3.8060852852e+01  7.9810437521e+02  8.0000000000e+02  3.3000000000e-01 0. 9.
       -2     1     3     0     0   101  3.9757626394e+01 -3.8060852852e+01 -7.9810437521e+02  8.0000000000e+02  3.3000000000e-01 0. 9.
#pdf   11  -11  1.000000e+00  1.000000e+00  1.600000e+03  1.000000e+00  1.000000e+00
</event>
<event>
     5  9999  1.000000e+00  1.600000e+03  8.079897e-03  9.131846e-02
       11    -1     0     0     0     0  0.0000000000e+00  0.0000000000e+00  8.0000000000e+02  8.0000000000e+02  0.0000000000e+00 0. 9.
      -11    -1     0     0     0     0  0.0000000000e+00  0.0000000000e+00 -8.0000000000e+02  8.0000000000e+02  0.0000000000e+00 0. 9.
       23     2     1     2     0     0  0.0000000000e+00  0.0000000000e+00  0.0000000000e+00  1.6000000000e+03  1.6000000000e+03 0. 9.
        2     1     3     0   101     0  7.5920919549e+02  1.8583435124e+02 -1.7049012428e+02  8.0000000000e+02  3.3000000000e-01 0. 9.
       -2     1     3     0     0   101 -7.5920919549e+02 -1.8583435124e+02  1.7049012428e+02  8.0000000000e+02  3.3000000000e-01 0. 9.
#pdf   11  -11  1.000000e+00  1.000000e+00  1.600000e+03  1.000000e+00  1.000000e+00
</event>
<event>
     5  9999  1.000000e+00  1.600000e+03  8.079897e-03  9.131846e-02
       11    -1     0     0     0     0  0.0000000000e+00  0.0000000000e+00  8.0000000000e+02  8.0000000000e+02  0.0000000000e+00 0. 9.
      -11    -1     0     0     0     0  0.0000000000e+00  0.0000000000e+00 -8.0000000000e+02  8.0000000000e+02  0.0000000000e+00 0. 9.
       23     2     1     2     0     0  0.0000000000e+00  0.0000000000e+00  0.0000000000e+00  1.6000000000e+03  1.6000000000e+03 0. 9.
        2     1     3     0   101     0  3.1267019398e+02  5.9748912123e+02 -4.3039980357e+02  8.0000000000e+02  3.3000000000e-01 0. 9.
       -2     1     3     0     0   101 -3.1267019398e+02 -5.9748912123e+02  4.3039980357e+02  8.0000000000e+02  3.3000000000e-01 0. 9.
#pdf   11  -11  1.000000e+00  1.000000e+00  1.600000e+03  1.000000e+00  1.000000e+00
</event>
<event>
     5  9999  1.000000e+00  1.600000e+03  8.079897e-03  9.131846e-02
       11    -1     0     0     0     0  0.0000000000e+00  0.0000000000e+00  8.0000000000e+02  8.0000000000e+02  0.0000000000e+00 0. 9.
      -11    -1     0     0     0     0  0.0000000000e+00  0.0000000000e+00 -8.0000000000e+02  8.0000000000e+02  0.0000000000e+00 0. 9.
       23     2     1     2     0     0  0.0000000000e+00  0.0000000000e+00  0.0000000000e+00  1.6000000000e+03  1.6000000000e+03 0. 9.
        2     1     3     0   101     0 -8.5438431091e+01 -6.0770564754e+02  5.1321926264e+02  8.0000000000e+02  3.3000000000e-01 0. 9.
       -2     1     3     0     0   101  8.5438431091e+01  6.0770564754e+02 -5.1321926264e+02  8.0000000000e+02  3.3000000000e-01 0. 9.
#pdf   11  -11  1.000000e+00  1.000000e+00  1.600000e+03  1.000000e+00  1.000000e+00
</event>
<event>
     5  9999  1.000000e+00  1.600000e+03  8.079897e-03  9.131846e-02
       11    -1     0     0     0     0  0.0000000000e+00  0.0000000000e+00  8.0000000000e+02  8.0000000000e+02  0.0000000000e+00 0. 9.
      -11    -1     0     0     0     0  0.0000000000e+00  0.0000000000e+00 -8.0000000000e+02  8.0000000000e+02  0.0000000000e+00 0. 9.
       23     2     1     2     0     0  0.0000000000e+00  0.0000000000e+00  0.0000000000e+00  1.6000000000e+03  1.6000000000e+03 0. 9.
        2     1     3     0   101     0 -6.3797913073e+02  4.4673959951e+02  1.8277376749e+02  8.0000000000e+02  3.3000000000e-01 0. 9.
       -2     1     3     0     0   101  6.3797913073e+02 -4.4673959951e+02 -1.8277376749e+02  8.0000000000e+02  3.3000000000e-01 0. 9.
#pdf   11  -11  1.000000e+00  1.000000e+00  1.600000e+03  1.000000e+00  1.000000e+00
</event>
<event>
     5  9999  1.000000e+00  1.600000e+03  8.079897e-03  9.131846e-02
       11    -1     0     0     0     0  0.0000000000e+00  0.0000000000e+00  8.0000000000e+02  8.0000000000e+02  0.0000000000e+00 0. 9.
      -11    -1     0     0     0     0  0.0000000000e+00  0.0000000000e+00 -8.0000000000e+02  8.0000000000e+02  0.0000000000e+00 0. 9.
       23     2     1     2     0     0  0.0000000000e+00  0.0000000000e+00  0.0000000000e+00  1.6000000000e+03  1.6000000000e+03 0. 9.
        2     1     3     0   101     0  2.0792651531e+02 -3.8674204087e+02  6.6872793359e+02  8.0000000000e+02  3.3000000000e-01 0. 9.
       -2     1     3     0     0   101 -2.0792651531e+02  3.8674204087e+02 -6.6872793359e+02  8.0000000000e+02  3.3000000000e-01 0. 9.
#pdf   11  -11  1.000000e+00  1.000000e+00  1.600000e+03  1.000000e+00  1.000000e+00
</event>
<event>
     5  9999  1.000000e+00  1.600000e+03  8.079897e-03  9.131846e-02
       11    -1     0     0     0     0  0.0000000000e+00  0.0000000000e+00  8.0000000000e+02  8.0000000000e+02  0.0000000000e+00 0. 9.
      -11    -1     0     0     0     0  0.0000000000e+00  0.0000000000e+00 -8.0000000000e+02  8.0000000000e+02  0.0000000000e+00 0. 9.
       23     2     1     2     0     0  0.0000000000e+00  0.0000000000e+00  0.0000000000e+00  1.6000000000e+03  1.6000000000e+03 0. 9.
        2     1     3     0   101     0  3.0564523044e+02  3.4186559736e+02  6.5552177504e+02  8.0000000000e+02  3.3000000000e-01 0. 9.
       -2     1     3     0     0   101 -3.0564523044e+02 -3.4186559736e+02 -6.5552177504e+02  8.0000000000e+02  3.3000000000e-01 0. 9.
#pdf   11  -11  1.000000e+00  1.000000e+00  1.600000e+03  1.000000e+00  1.000000e+00
</event>
<event>
     5  9999  1.000000e+00  1.600000e+03  8.079897e-03  9.131846e-02
       11    -1     0     0     0     0  0.0000000000e+00  0.0000000000e+00  8.0000000000e+02  8.0000000000e+02  0.0000000000e+00 0. 9.
      -11    -1     0     0     0     0  0.0000000000e+00  0.0000000000e+00 -8.0000000000e+02  8.0000000000e+02  0.0000000000e+00 0. 9.
       23     2     1     2     0     0  0.0000000000e+00  0.0000000000e+00  0.0000000000e+00  1.6000000000e+03  1.6000000000e+03 0. 9.
        2     1     3     0   101     0 -3.3434843414e+02  1.5776037320e+02  7.0945238060e+02  8.0000000000e+02  3.3000000000e-01 0. 9.
       -2     1     3     0     0   101  3.3434843414e+02 -1.5776037320e+02 -7.0945238060e+02  8.0000000000e+02  3.3000000000e-01 0. 9.
#pdf   11  -11  1.000000e+00  1.000000e+00  1.600000e+03  1.000000e+00  1.000000e+00
</event>
<event>
     5  9999  1.000000e+00  1.600000e+03  8.079897e-03  9.131846e-02
       11    -1     0     0     0     0  0.0000000000e+00  0.0000000000e+00  8.0000000000e+02  8.0000000000e+02  0.0000000000e+00 0. 9.
      -11    -1     0     0     0     0  0.0000000000e+00  0.0000000000e+00 -8.0000000000e+02  8.0000000000e+02  0.0000000000e+00 0. 9.
       23     2     1     2     0     0  0.0000000000e+00  0.0000000000e+00  0.0000000000e+00  1.6000000000e+03  1.6000000000e+03 0. 9.
        2     1     3     0   101     0 -7.3028049099e+02  6.8103680025e+01  3.1945607577e+02  8.0000000000e+02  3.3000000000e-01 0. 9.
       -2     1     3     0     0   101  7.3028049099e+02 -6.8103680025e+01 -3.1945607577e+02  8.0000000000e+02  3.3000000000e-01 0. 9.
#pdf   11  -11  1.000000e+00  1.000000e+00  1.600000e+03  1.000000e+00  1.000000e+00
</event>
<event>
     5  9999  1.000000e+00  1.600000e+03  8.079897e-03  9.131846e-02
       11    -1     0     0     0     0  0.0000000000e+00  0.0000000000e+00  8.0000000000e+02  8.0000000000e+02  0.0000000000e+00 0. 9.
      -11    -1     0     0     0     0  0.0000000000e+00  0.0000000000e+00 -8.0000000000e+02  8.0000000000e+02  0.0000000000e+00 0. 9.
       23     2     1     2     0     0  0.0000000000e+00  0.0000000000e+00  0.0000000000e+00  1.6000000000e+03  1.6000000000e+03 0. 9.
        2     1     3     0   101     0 -4.3623210263e+02 -3.5520003759e+02  5.6880082369e+02  8.0000000000e+02  3.3000000000e-01 0. 9.
       -2     1     3     0     0   101  4.3623210263e+02  3.5520003759e+02 -5.6880082369e+02  8.0000000000e+02  3.3000000000e-01 0. 9.
#pdf   11  -11  1.000000e+00  1.000000e+00  1.600000e+03  1.000000e+00  1.000000e+00
</event>
<event>
     5  9999  1.000000e+00  1.600000e+03  8.079897e-03  9.131846e-02
       11    -1     0     0     0     0  0.0000000000e+00  0.0000000000e+00  8.0000000000e+02  8.0000000000e+02  0.0000000000e+00 0. 9.
      -11    -1     0     0     0     0  0.0000000000e+00  0.0000000000e+00 -8.0000000000e+02  8.0000000000e+02  0.0000000000e+00 0. 9.
       23     2     1     2     0     0  0.0000000000e+00  0.0000000000e+00  0.0000000000e+00  1.6000000000e+03  1.6000000000e+03 0. 9.
        2     1     3     0   101     0  6.3758729703e+02  1.8862151344e+02  4.4486431014e+02  8.0000000000e+02  3.3000000000e-01 0. 9.
       -2     1     3     0     0   101 -6.3758729703e+02 -1.8862151344e+02 -4.4486431014e+02  8.0000000000e+02  3.3000000000e-01 0. 9.
#pdf   11  -11  1.000000e+00  1.000000e+00  1.600000e+03  1.000000e+00  1.000000e+00
</event>
<event>
     5  9999  1.000000e+00  1.600000e+03  8.079897e-03  9.131846e-02
       11    -1     0     0     0     0  0.0000000000e+00  0.0000000000e+00  8.0000000000e+02  8.0000000000e+02  0.0000000000e+00 0. 9.
      -11    -1     0     0     0     0  0.0000000000e+00  0.0000000000e+00 -8.0000000000e+02  8.0000000000e+02  0.0000000000e+00 0. 9.
       23     2     1     2     0     0  0.0000000000e+00  0.0000000000e+00  0.0000000000e+00  1.6000000000e+03  1.6000000000e+03 0. 9.
        2     1     3     0   101     0 -2.4811491866e+02 -3.6317567915e+02  6.6823820926e+02  8.0000000000e+02  3.3000000000e-01 0. 9.
       -2     1     3     0     0   101  2.4811491866e+02  3.6317567915e+02 -6.6823820926e+02  8.0000000000e+02  3.3000000000e-01 0. 9.
#pdf   11  -11  1.000000e+00  1.000000e+00  1.600000e+03  1.000000e+00  1.000000e+00
</event>
<event>
     5  9999  1.000000e+00  1.600000e+03  8.079897e-03  9.131846e-02
       11    -1     0     0     0     0  0.0000000000e+00  0.0000000000e+00  8.0000000000e+02  8.0000000000e+02  0.0000000000e+00 0. 9.
      -11    -1     0     0     0     0  0.0000000000e+00  0.0000000000e+00 -8.0000000000e+02  8.0000000000e+02  0.0000000000e+00 0. 9.
       23     2     1     2     0     0  0.0000000000e+00  0.0000000000e+00  0.0000000000e+00  1.6000000000e+03  1.6000000000e+03 0. 9.
        2     1     3     0   101     0  1.3437214961e+02 -2.3645301474e+02  7.5235230333e+02  8.0000000000e+02  3.3000000000e-01 0. 9.
       -2     1     3     0     0   101 -1.3437214961e+02  2.3645301474e+02 -7.5235230333e+02  8.0000000000e+02  3.3000000000e-01 0. 9.
#pdf   11  -11  1.000000e+00  1.000000e+00  1.600000e+03  1.000000e+00  1.000000e+00
</event>
<event>
     5  9999  1.000000e+00  1.600000e+03  8.079897e-03  9.131846e-02
       11    -1     0     0     0     0  0.0000000000e+00  0.0000000000e+00  8.0000000000e+02  8.0000000000e+02  0.0000000000e+00 0. 9.
      -11    -1     0     0     0     0  0.0000000000e+00  0.0000000000e+00 -8.0000000000e+02  8.0000000000e+02  0.0000000000e+00 0. 9.
       23     2     1     2     0     0  0.0000000000e+00  0.0000000000e+00  0.0000000000e+00  1.6000000000e+03  1.6000000000e+03 0. 9.
        2     1     3     0   101     0 -4.6075166996e+02  6.0313460210e+02  2.5285656306e+02  8.0000000000e+02  3.3000000000e-01 0. 9.
       -2     1     3     0     0   101  4.6075166996e+02 -6.0313460210e+02 -2.5285656306e+02  8.0000000000e+02  3.3000000000e-01 0. 9.
#pdf   11  -11  1.000000e+00  1.000000e+00  1.600000e+03  1.000000e+00  1.000000e+00
</event>
<event>
     5  9999  1.000000e+00  1.600000e+03  8.079897e-03  9.131846e-02
       11    -1     0     0     0     0  0.0000000000e+00  0.0000000000e+00  8.0000000000e+02  8.0000000000e+02  0.0000000000e+00 0. 9.
      -11    -1     0     0     0     0  0.0000000000e+00  0.0000000000e+00 -8.0000000000e+02  8.0000000000e+02  0.0000000000e+00 0. 9.
       23     2     1     2     0     0  0.0000000000e+00  0.0000000000e+00  0.0000000000e+00  1.6000000000e+03  1.6000000000e+03 0. 9.
        2     1     3     0   101     0 -8.8292035264e+01 -5.9443367179e+01 -7.9288769300e+02  8.0000000000e+02  3.3000000000e-01 0. 9.
       -2     1     3     0     0   101  8.8292035264e+01  5.9443367179e+01  7.9288769300e+02  8.0000000000e+02  3.3000000000e-01 0. 9.
#pdf   11  -11  1.000000e+00  1.000000e+00  1.600000e+03  1.000000e+00  1.000000e+00
</event>
<event>
     5  9999  1.000000e+00  1.600000e+03  8.079897e-03  9.131846e-02
       11    -1     0     0     0     0  0.0000000000e+00  0.0000000000e+00  8.0000000000e+02  8.0000000000e+02  0.0000000000e+00 0. 9.
      -11    -1     0     0     0     0  0.0000000000e+00  0.0000000000e+00 -8.0000000000e+02  8.0000000000e+02  0.0000000000e+00 0. 9.
       23     2     1     2     0     0  0.0000000000e+00  0.0000000000e+00  0.0000000000e+00  1.6000000000e+03  1.6000000000e+03 0. 9.
        2     1     3     0   101     0  7.4998221542e+02  2.2806793975e+02  1.5972345635e+02  8.0000000000e+02  3.3000000000e-01 0. 9.
       -2     1     3     0     0   101 -7.4998221542e+02 -2.2806793975e+02 -1.5972345635e+02  8.0000000000e+02  3.3000000000e-01 0. 9.
#pdf   11  -11  1.000000e+00  1.000000e+00  1.600000e+03  1.000000e+00  1.000000e+00
</event>
<event>
     5  9999  1.000000e+00  1.600000e+03  8.079897e-03  9.131846e-02
       11    -1     0     0     0     0  0.0000000000e+00  0.0000000000e+00  8.0000000000e+02  8.0000000000e+02  0.0000000000e+00 0. 9.
      -11    -1     0     0     0     0  0.0000000000e+00  0.0000000000e+00 -8.0000000000e+02  8.0000000000e+02  0.0000000000e+00 0. 9.
       23     2     1     2     0     0  0.0000000000e+00  0.0000000000e+00  0.0000000000e+00  1.6000000000e+03  1.6000000000e+03 0. 9.
        2     1     3     0   101     0  7.5526459163e+01 -5.6345879766e+02  5.6285862204e+02  8.0000000000e+02  3.3000000000e-01 0. 9.
       -2     1     3     0     0   101 -7.5526459163e+01  5.6345879766e+02 -5.6285862204e+02  8.0000000000e+02  3.3000000000e-01 0. 9.
#pdf   11  -11  1.000000e+00  1.000000e+00  1.600000e+03  1.000000e+00  1.000000e+00
</event>
<event>
     5  9999  1.000000e+00  1.600000e+03  8.079897e-03  9.131846e-02
       11    -1     0     0     0     0  0.0000000000e+00  0.0000000000e+00  8.0000000000e+02  8.0000000000e+02  0.0000000000e+00 0. 9.
      -11    -1     0     0     0     0  0.0000000000e+00  0.0000000000e+00 -8.0000000000e+02  8.0000000000e+02  0.0000000000e+00 0. 9.
       23     2     1     2     0     0  0.0000000000e+00  0.0000000000e+00  0.0000000000e+00  1.6000000000e+03  1.6000000000e+03 0. 9.
        2     1     3     0   101     0 -6.7538430806e+01 -3.5471911185e+02  7.1387169936e+02  8.0000000000e+02  3.3000000000e-01 0. 9.
       -2     1     3     0     0   101  6.7538430806e+01  3.5471911185e+02 -7.1387169936e+02  8.0000000000e+02  3.3000000000e-01 0. 9.
#pdf   11  -11  1.000000e+00  1.000000e+00  1.600000e+03  1.000000e+00  1.000000e+00
</event>
<event>
     5  9999  1.000000e+00  1.600000e+03  8.079897e-03  9.131846e-02
       11    -1     0     0     0     0  0.0000000000e+00  0.0000000000e+00  8.0000000000e+02  8.0000000000e+02  0.0000000000e+00 0. 9.
      -11    -1     0     0     0     0  0.0000000000e+00  0.0000000000e+00 -8.0000000000e+02  8.0000000000e+02  0.0000000000e+00 0. 9.
       23     2     1     2     0     0  0.0000000000e+00  0.0000000000e+00  0.0000000000e+00  1.6000000000e+03  1.6000000000e+03 0. 9.
        2     1     3     0   101     0  4.6058960889e+02 -1.9932701697e+02  6.2299746676e+02  8.0000000000e+02  3.3000000000e-01 0. 9.
       -2     1     3     0     0   101 -4.6058960889e+02  1.9932701697e+02 -6.2299746676e+02  8.0000000000e+02  3.3000000000e-01 0. 9.
#pdf   11  -11  1.000000e+00  1.000000e+00  1.600000e+03  1.000000e+00  1.000000e+00
</event>
<event>
     5  9999  1.000000e+00  1.600000e+03  8.079897e-03  9.131846e-02
       11    -1     0     0     0     0  0.0000000000e+00  0.0000000000e+00  8.0000000000e+02  8.0000000000e+02  0.0000000000e+00 0. 9.
      -11    -1     0     0     0     0  0.0000000000e+00  0.0000000000e+00 -8.0000000000e+02  8.0000000000e+02  0.0000000000e+00 0. 9.
       23     2     1     2     0     0  0.0000000000e+00  0.0000000000e+00  0.0000000000e+00  1.6000000000e+03  1.6000000000e+03 0. 9.
        2     1     3     0   101     0 -3.2452873517e+02 -4.9986007572e+02  5.3368613983e+02  8.0000000000e+02  3.3000000000e-01 0. 9.
       -2     1     3     0     0   101  3.2452873517e+02  4.9986007572e+02 -5.3368613983e+02  8.0000000000e+02  3.3000000000e-01 0. 9.
#pdf   11  -11  1.000000e+00  1.000000e+00  1.600000e+03  1.000000e+00  1.000000e+00
</event>
<event>
     5  9999  1.000000e+00  1.600000e+03  8.079897e-03  9.131846e-02
       11    -1     0     0     0     0  0.0000000000e+00  0.0000000000e+00  8.0000000000e+02  8.0000000000e+02  0.0000000000e+00 0. 9.
      -11    -1     0     0     0     0  0.0000000000e+00  0.0000000000e+00 -8.0000000000e+02  8.0000000000e+02  0.0000000000e+00 0. 9.
       23     2     1     2     0     0  0.0000000000e+00  0.0000000000e+00  0.0000000000e+00  1.6000000000e+03  1.6000000000e+03 0. 9.
        2     1     3     0   101     0  1.2780770827e+01  1.6553364962e+02 -7.8258236234e+02  8.0000000000e+02  3.3000000000e-01 0. 9.
       -2     1     3     0     0   101 -1.2780770827e+01 -1.6553364962e+02  7.8258236234e+02  8.0000000000e+02  3.3000000000e-01 0. 9.
#pdf   11  -11  1.000000e+00  1.000000e+00  1.600000e+03  1.000000e+00  1.000000e+00
</event>
<event>
     5  9999  1.000000e+00  1.600000e+03  8.079897e-03  9.131846e-02
       11    -1     0     0     0     0  0.0000000000e+00  0.0000000000e+00  8.0000000000e+02  8.0000000000e+02  0.0000000000e+00 0. 9.
      -11    -1     0     0     0     0  0.0000000000e+00  0.0000000000e+00 -8.0000000000e+02  8.0000000000e+02  0.0000000000e+00 0. 9.
       23     2     1     2     0     0  0.0000000000e+00  0.0000000000e+00  0.0000000000e+00  1.6000000000e+03  1.6000000000e+03 0. 9.
        2     1     3     0   101     0  5.7652023465e+02  5.1152810095e+02  2.1439055967e+02  8.0000000000e+02  3.3000000000e-01 0. 9.
       -2     1     3     0     0   101 -5.7652023465e+02 -5.1152810095e+02 -2.1439055967e+02  8.0000000000e+02  3.3000000000e-01 0. 9.
#pdf   11  -11  1.000000e+00  1.000000e+00  1.600000e+03  1.000000e+00  1.000000e+00
</event>
<event>
     5  9999  1.000000e+00  1.600000e+03  8.079897e-03  9.131846e-02
       11    -1     0     0     0     0  0.0000000000e+00  0.0000000000e+00  8.0000000000e+02  8.0000000000e+02  0.0000000000e+00 0. 9.
      -11    -1     0     0     0     0  0.0000000000e+00  0.0000000000e+00 -8.0000000000e+02  8.0000000000e+02  0.0000000000e+00 0. 9.
       23     2     1     2     0     0  0.0000000000e+00  0.0000000000e+00  0.0000000000e+00  1.6000000000e+03  1.6000000000e+03 0. 9.
        2     1     3     0   101     0  6.7870293929e+02  1.1995620291e+02  4.0616834032e+02  8.0000000000e+02  3.3000000000e-01 0. 9.
       -2     1     3     0     0   101 -6.7870293929e+02 -1.1995620291e+02 -4.0616834032e+02  8.0000000000e+02  3.3000000000e-01 0. 9.
#pdf   11  -11  1.000000e+00  1.000000e+00  1.600000e+03  1.000000e+00  1.000000e+00
</event>
<event>
     5  9999  1.000000e+00  1.600000e+03  8.079897e-03  9.131846e-02
       11    -1     0     0     0     0  0.0000000000e+00  0.0000000000e+00  8.0000000000e+02  8.0000000000e+02  0.0000000000e+00 0. 9.
      -11    -1     0     0     0     0  0.0000000000e+00  0.0000000000e+00 -8.0000000000e+02  8.0000000000e+02  0.0000000000e+00 0. 9.
       23     2     1     2     0     0  0.0000000000e+00  0.0000000000e+00  0.0000000000e+00  1.6000000000e+03  1.6000000000e+03 0. 9.
        2     1     3     0   101     0  2.2906933372e+02 -5.1565482669e+02  5.6712188386e+02  8.0000000000e+02  3.3000000000e-01 0. 9.
       -2     1     3     0     0   101 -2.2906933372e+02  5.1565482669e+02 -5.6712188386e+02  8.0000000000e+02  3.3000000000e-01 0. 9.
#pdf   11  -11  1.000000e+00  1.000000e+00  1.600000e+03  1.000000e+00  1.000000e+00
</event>
<event>
     5  9999  1.000000e+00  1.600000e+03  8.079897e-03  9.131846e-02
       11    -1     0     0     0     0  0.0000000000e+00  0.0000000000e+00  8.0000000000e+02  8.0000000000e+02  0.0000000000e+00 0. 9.
      -11    -1     0     0     0     0  0.0000000000e+00  0.0000000000e+00 -8.0000000000e+02  8.0000000000e+02  0.0000000000e+00 0. 9.
       23     2     1     2     0     0  0.0000000000e+00  0.0000000000e+00  0.0000000000e+00  1.6000000000e+03  1.6000000000e+03 0. 9.
        2     1     3     0   101     0 -1.3221349270e+02 -2.3253591620e+02  7.5395393170e+02  8.0000000000e+02  3.3000000000e-01 0. 9.
       -2     1     3     0     0   101  1.3221349270e+02  2.3253591620e+02 -7.5395393170e+02  8.0000000000e+02  3.3000000000e-01 0. 9.
#pdf   11  -11  1.000000e+00  1.000000e+00  1.600000e+03  1.000000e+00  1.000000e+00
</event>
<event>
     5  9999  1.000000e+00  1.600000e+03  8.079897e-03  9.131846e-02
       11    -1     0     0     0     0  0.0000000000e+00  0.0000000000e+00  8.0000000000e+02  8.0000000000e+02  0.0000000000e+00 0. 9.
      -11    -1     0     0     0     0  0.0000000000e+00  0.0000000000e+00 -8.0000000000e+02  8.0000000000e+02  0.0000000000e+00 0. 9.
       23     2     1     2     0     0  0.0000000000e+00  0.0000000000e+00  0.0000000000e+00  1.6000000000e+03  1.6000000000e+03 0. 9.
        2     1     3     0   101     0  1.9895446143e+01 -3.5228832553e+01  7.9897621471e+02  8.0000000000e+02  3.3000000000e-01 0. 9.
       -2     1     3     0     0   101 -1.9895446143e+01  3.5228832553e+01 -7.9897621471e+02  8.0000000000e+02  3.3000000000e-01 0. 9.
#pdf   11  -11  1.000000e+00  1.000000e+00  1.600000e+03  1.000000e+00  1.000000e+00
</event>
<event>
     5  9999  1.000000e+00  1.600000e+03  8.079897e-03  9.131846e-02
       11    -1     0     0     0     0  0.0000000000e+00  0.0000000000e+00  8.0000000000e+02  8.0000000000e+02  0.0000000000e+00 0. 9.
      -11    -1     0     0     0     0  0.0000000000e+00  0.0000000000e+00 -8.0000000000e+02  8.0000000000e+02  0.0000000000e+00 0. 9.
       23     2     1     2     0     0  0.0000000000e+00  0.0000000000e+00  0.0000000000e+00  1.6000000000e+03  1.6000000000e+03 0. 9.
        2     1     3     0   101     0 -5.6083878140e+02 -5.5589946545e+02  1.2820115714e+02  8.0000000000e+02  3.3000000000e-01 0. 9.
       -2     1     3     0     0   101  5.6083878140e+02  5.5589946545e+02 -1.2820115714e+02  8.0000000000e+02  3.3000000000e-01 0. 9.
#pdf   11  -11  1.000000e+00  1.000000e+00  1.600000e+03  1.000000e+00  1.000000e+00
</event>
<event>
     5  9999  1.000000e+00  1.600000e+03  8.079897e-03  9.131846e-02
       11    -1     0     0     0     0  0.0000000000e+00  0.0000000000e+00  8.0000000000e+02  8.0000000000e+02  0.0000000000e+00 0. 9.
      -11    -1     0     0     0     0  0.0000000000e+00  0.0000000000e+00 -8.0000000000e+02  8.0000000000e+02  0.0000000000e+00 0. 9.
       23     2     1     2     0     0  0.0000000000e+00  0.0000000000e+00  0.0000000000e+00  1.6000000000e+03  1.6000000000e+03 0. 9.
        2     1     3     0   101     0 -6.0967778772e+01 -1.2944774490e+02  7.8709980459e+02  8.0000000000e+02  3.3000000000e-01 0. 9.
       -2     1     3     0     0   101  6.0967778772e+01  1.2944774490e+02 -7.8709980459e+02  8.0000000000e+02  3.3000000000e-01 0. 9.
#pdf   11  -11  1.000000e+00  1.000000e+00  1.600000e+03  1.000000e+00  1.000000e+00
</event>
<event>
     5  9999  1.000000e+00  1.600000e+03  8.079897e-03  9.131846e-02
       11    -1     0     0     0     0  0.0000000000e+00  0.0000000000e+00  8.0000000000e+02  8.0000000000e+02  0.0000000000e+00 0. 9.
      -11    -1     0     0     0     0  0.0000000000e+00  0.0000000000e+00 -8.0000000000e+02  8.0000000000e+02  0.0000000000e+00 0. 9.
       23     2     1     2     0     0  0.0000000000e+00  0.0000000000e+00  0.0000000000e+00  1.6000000000e+03  1.6000000000e+03 0. 9.
        2     1     3     0   101     0 -2.6861372287e+02  7.4108298411e+02  1.3653779567e+02  8.0000000000e+02  3.3000000000e-01 0. 9.
       -2     1     3     0     0   101  2.6861372287e+02 -7.4108298411e+02 -1.3653779567e+02  8.0000000000e+02  3.3000000000e-01 0. 9.
#pdf   11  -11  1.000000e+00  1.000000e+00  1.600000e+03  1.000000e+00  1.000000e+00
</event>
<event>
     5  9999  1.000000e+00  1.600000e+03  8.079897e-03  9.131846e-02
       11    -1     0     0     0     0  0.0000000000e+00  0.0000000000e+00  8.0000000000e+02  8.0000000000e+02  0.0000000000e+00 0. 9.
      -11    -1     0     0     0     0  0.0000000000e+00  0.0000000000e+00 -8.0000000000e+02  8.0000000000e+02  0.0000000000e+00 0. 9.
       23     2     1     2     0     0  0.0000000000e+00  0.0000000000e+00  0.0000000000e+00  1.6000000000e+03  1.6000000000e+03 0. 9.
        2     1     3     0   101     0  6.4337985550e+02 -2.7218261258e+00  4.7545225239e+02  8.0000000000e+02  3.3000000000e-01 0. 9.
       -2     1     3     0     0   101 -6.4337985550e+02  2.7218261258e+00 -4.7545225239e+02  8.0000000000e+02  3.3000000000e-01 0. 9.
#pdf   11  -11  1.000000e+00  1.000000e+00  1.600000e+03  1.000000e+00  1.000000e+00
</event>
<event>
     5  9999  1.000000e+00  1.600000e+03  8.079897e-03  9.131846e-02
       11    -1     0     0     0     0  0.0000000000e+00  0.0000000000e+00  8.0000000000e+02  8.0000000000e+02  0.0000000000e+00 0. 9.
      -11    -1     0     0     0     0  0.0000000000e+00  0.0000000000e+00 -8.0000000000e+02  8.0000000000e+02  0.0000000000e+00 0. 9.
       23     2     1     2     0     0  0.0000000000e+00  0.0000000000e+00  0.0000000000e+00  1.6000000000e+03  1.6000000000e+03 0. 9.
        2     1     3     0   101     0 -2.9181857404e+02  4.3208702728e+02  6.0674756843e+02  8.0000000000e+02  3.3000000000e-01 0. 9.
       -2     1     3     0     0   101  2.9181857404e+02 -4.3208702728e+02 -6.0674756843e+02  8.0000000000e+02  3.3000000000e-01 0. 9.
#pdf   11  -11  1.000000e+00  1.000000e+00  1.600000e+03  1.000000e+00  1.000000e+00
</event>
<event>
     5  9999  1.000000e+00  1.600000e+03  8.079897e-03  9.131846e-02
       11    -1     0     0     0     0  0.0000000000e+00  0.0000000000e+00  8.0000000000e+02  8.0000000000e+02  0.0000000000e+00 0. 9.
      -11    -1     0     0     0     0  0.0000000000e+00  0.0000000000e+00 -8.0000000000e+02  8.0000000000e+02  0.0000000000e+00 0. 9.
       23     2     1     2     0     0  0.0000000000e+00  0.0000000000e+00  0.0000000000e+00  1.6000000000e+03  1.6000000000e+03 0. 9.
        2     1     3     0   101     0 -1.2250024015e+02 -2.6511037629e+02  7.4478860803e+02  8.0000000000e+02  3.3000000000e-01 0. 9.
       -2     1     3     0     0   101  1.2250024015e+02  2.6511037629e+02 -7.4478860803e+02  8.0000000000e+02  3.3000000000e-01 0. 9.
#pdf   11  -11  1.000000e+00  1.000000e+00  1.600000e+03  1.000000e+00  1.000000e+00
</event>
<event>
     5  9999  1.000000e+00  1.600000e+03  8.079897e-03  9.131846e-02
       11    -1     0     0     0     0  0.0000000000e+00  0.0000000000e+00  8.0000000000e+02  8.0000000000e+02  0.0000000000e+00 0. 9.
      -11    -1     0     0     0     0  0.0000000000e+00  0.0000000000e+00 -8.0000000000e+02  8.0000000000e+02  0.0000000000e+00 0. 9.
       23     2     1     2     0     0  0.0000000000e+00  0.0000000000e+00  0.0000000000e+00  1.6000000000e+03  1.6000000000e+03 0. 9.
        2     1     3     0   101     0 -7.7101928669e+02 -1.7428137872e+02  1.2310626178e+02  8.0000000000e+02  3.3000000000e-01 0. 9.
       -2     1     3     0     0   101  7.7101928669e+02  1.7428137872e+02 -1.2310626178e+02  8.0000000000e+02  3.3000000000e-01 0. 9.
#pdf   11  -11  1.000000e+00  1.000000e+00  1.600000e+03  1.000000e+00  1.000000e+00
</event>
<event>
     5  9999  1.000000e+00  1.600000e+03  8.079897e-03  9.131846e-02
       11    -1     0     0     0     0  0.0000000000e+00  0.0000000000e+00  8.0000000000e+02  8.0000000000e+02  0.0000000000e+00 0. 9.
      -11    -1     0     0     0     0  0.0000000000e+00  0.0000000000e+00 -8.0000000000e+02  8.0000000000e+02  0.0000000000e+00 0. 9.
       23     2     1     2     0     0  0.0000000000e+00  0.0000000000e+00  0.0000000000e+00  1.6000000000e+03  1.6000000000e+03 0. 9.
        2     1     3     0   101     0  4.0647809275e+01 -7.8500297089e+01  7.9510084270e+02  8.0000000000e+02  3.3000000000e-01 0. 9.
       -2     1     3     0     0   101 -4.0647809275e+01  7.8500297089e+01 -7.9510084270e+02  8.0000000000e+02  3.3000000000e-01 0. 9.
#pdf   11  -11  1.000000e+00  1.000000e+00  1.600000e+03  1.000000e+00  1.000000e+00
</event>
<event>
     5  9999  1.000000e+00  1.600000e+03  8.079897e-03  9.131846e-02
       11    -1     0     0     0     0  0.0000000000e+00  0.0000000000e+00  8.0000000000e+02  8.0000000000e+02  0.0000000000e+00 0. 9.
      -11    -1     0     0     0     0  0.0000000000e+00  0.0000000000e+00 -8.0000000000e+02  8.0000000000e+02  0.0000000000e+00 0. 9.
       23     2     1     2     0     0  0.0000000000e+00  0.0000000000e+00  0.0000000000e+00  1.6000000000e+03  1.6000000000e+03 0. 9.
        2     1     3     0   101     0 -3.3398581475e+02 -1.5078617582e+02 -7.1113774743e+02  8.0000000000e+02  3.3000000000e-01 0. 9.
       -2     1     3     0     0   101  3.3398581475e+02  1.5078617582e+02  7.1113774743e+02  8.0000000000e+02  3.3000000000e-01 0. 9.
#pdf   11  -11  1.000000e+00  1.000000e+00  1.600000e+03  1.000000e+00  1.000000e+00
</event>
<event>
     5  9999  1.000000e+00  1.600000e+03  8.079897e-03  9.131846e-02
       11    -1     0     0     0     0  0.0000000000e+00  0.0000000000e+00  8.0000000000e+02  8.0000000000e+02  0.0000000000e+00 0. 9.
      -11    -1     0     0     0     0  0.0000000000e+00  0.0000000000e+00 -8.0000000000e+02  8.0000000000e+02  0.0000000000e+00 0. 9.
       23     2     1     2     0     0  0.0000000000e+00  0.0000000000e+00  0.0000000000e+00  1.6000000000e+03  1.6000000000e+03 0. 9.
        2     1     3     0   101     0  3.7394609757e+02  6.7270849004e+02 -2.1823724393e+02  8.0000000000e+02  3.3000000000e-01 0. 9.
       -2     1     3     0     0   101 -3.7394609757e+02 -6.7270849004e+02  2.1823724393e+02  8.0000000000e+02  3.3000000000e-01 0. 9.
#pdf   11  -11  1.000000e+00  1.000000e+00  1.600000e+03  1.000000e+00  1.000000e+00
</event>
<event>
     5  9999  1.000000e+00  1.600000e+03  8.079897e-03  9.131846e-02
       11    -1     0     0     0     0  0.0000000000e+00  0.0000000000e+00  8.0000000000e+02  8.0000000000e+02  0.0000000000e+00 0. 9.
      -11    -1     0     0     0     0  0.0000000000e+00  0.0000000000e+00 -8.0000000000e+02  8.0000000000e+02  0.0000000000e+00 0. 9.
       23     2     1     2     0     0  0.0000000000e+00  0.0000000000e+00  0.0000000000e+00  1.6000000000e+03  1.6000000000e+03 0. 9.
        2     1     3     0   101     0 -2.8993366743e+02  7.3984985933e+02 -9.2523214625e+01  8.0000000000e+02  3.3000000000e-01 0. 9.
       -2     1     3     0     0   101  2.8993366743e+02 -7.3984985933e+02  9.2523214625e+01  8.0000000000e+02  3.3000000000e-01 0. 9.
#pdf   11  -11  1.000000e+00  1.000000e+00  1.600000e+03  1.000000e+00  1.000000e+00
</event>
<event>
     5  9999  1.000000e+00  1.600000e+03  8.079897e-03  9.131846e-02
       11    -1     0     0     0     0  0.0000000000e+00  0.0000000000e+00  8.0000000000e+02  8.0000000000e+02  0.0000000000e+00 0. 9.
      -11    -1     0     0     0     0  0.0000000000e+00  0.0000000000e+00 -8.0000000000e+02  8.0000000000e+02  0.0000000000e+00 0. 9.
       23     2     1     2     0     0  0.0000000000e+00  0.0000000000e+00  0.0000000000e+00  1.6000000000e+03  1.6000000000e+03 0. 9.
        2     1     3     0   101     0  1.5419225460e+02 -2.3109753096e+02  7.5021235054e+02  8.0000000000e+02  3.3000000000e-01 0. 9.
       -2     1     3     0     0   101 -1.5419225460e+02  2.3109753096e+02 -7.5021235054e+02  8.0000000000e+02  3.3000000000e-01 0. 9.
#pdf   11  -11  1.000000e+00  1.000000e+00  1.600000e+03  1.000000e+00  1.000000e+00
</event>
<event>
     5  9999  1.000000e+00  1.600000e+03  8.079897e-03  9.131846e-02
       11    -1     0     0     0     0  0.0000000000e+00  0.0000000000e+00  8.0000000000e+02  8.0000000000e+02  0.0000000000e+00 0. 9.
      -11    -1     0     0     0     0  0.0000000000e+00  0.0000000000e+00 -8.0000000000e+02  8.0000000000e+02  0.0000000000e+00 0. 9.
       23     2     1     2     0     0  0.0000000000e+00  0.0000000000e+00  0.0000000000e+00  1.6000000000e+03  1.6000000000e+03 0. 9.
        2     1     3     0   101     0  4.1804252502e+02 -2.1130517456e+02  6.4852946084e+02  8.0000000000e+02  3.3000000000e-01 0. 9.
       -2     1     3     0     0   101 -4.1804252502e+02  2.1130517456e+02 -6.4852946084e+02  8.0000000000e+02  3.3000000000e-01 0. 9.
#pdf   11  -11  1.000000e+00  1.000000e+00  1.600000e+03  1.000000e+00  1.000000e+00
</event>
<event>
     5  9999  1.000000e+00  1.600000e+03  8.079897e-03  9.131846e-02
       11    -1     0     0     0     0  0.0000000000e+00  0.0000000000e+00  8.0000000000e+02  8.0000000000e+02  0.0000000000e+00 0. 9.
      -11    -1     0     0     0     0  0.0000000000e+00  0.0000000000e+00 -8.0000000000e+02  8.0000000000e+02  0.0000000000e+00 0. 9.
       23     2     1     2     0     0  0.0000000000e+00  0.0000000000e+00  0.0000000000e+00  1.6000000000e+03  1.6000000000e+03 0. 9.
        2     1     3     0   101     0 -4.7064368301e+02  2.6767687707e+02  5.8893421043e+02  8.0000000000e+02  3.3000000000e-01 0. 9.
       -2     1     3     0     0   101  4.7064368301e+02 -2.6767687707e+02 -5.8893421043e+02  8.0000000000e+02  3.3000000000e-01 0. 9.
#pdf   11  -11  1.000000e+00  1.000000e+00  1.600000e+03  1.000000e+00  1.000000e+00
</event>
<event>
     5  9999  1.000000e+00  1.600000e+03  8.079897e-03  9.131846e-02
       11    -1     0     0     0     0  0.0000000000e+00  0.0000000000e+00  8.0000000000e+02  8.0000000000e+02  0.0000000000e+00 0. 9.
      -11    -1     0     0     0     0  0.0000000000e+00  0.0000000000e+00 -8.0000000000e+02  8.0000000000e+02  0.0000000000e+00 0. 9.
       23     2     1     2     0     0  0.0000000000e+00  0.0000000000e+00  0.0000000000e+00  1.6000000000e+03  1.6000000000e+03 0. 9.
        2     1     3     0   101     0  4.2220085135e+02  1.9389556659e+02  6.5126864002e+02  8.0000000000e+02  3.3000000000e-01 0. 9.
       -2     1     3     0     0   101 -4.2220085135e+02 -1.9389556659e+02 -6.5126864002e+02  8.0000000000e+02  3.3000000000e-01 0. 9.
#pdf   11  -11  1.000000e+00  1.000000e+00  1.600000e+03  1.000000e+00  1.000000e+00
</event>
<event>
     5  9999  1.000000e+00  1.600000e+03  8.079897e-03  9.131846e-02
       11    -1     0     0     0     0  0.0000000000e+00  0.0000000000e+00  8.0000000000e+02  8.0000000000e+02  0.0000000000e+00 0. 9.
      -11    -1     0     0     0     0  0.0000000000e+00  0.0000000000e+00 -8.0000000000e+02  8.0000000000e+02  0.0000000000e+00 0. 9.
       23     2     1     2     0     0  0.0000000000e+00  0.0000000000e+00  0.0000000000e+00  1.6000000000e+03  1.6000000000e+03 0. 9.
        2     1     3     0   101     0 -7.0782629744e+02  2.8730490376e+02  2.3756623504e+02  8.0000000000e+02  3.3000000000e-01 0. 9.
       -2     1     3     0     0   101  7.0782629744e+02 -2.8730490376e+02 -2.3756623504e+02  8.0000000000e+02  3.3000000000e-01 0. 9.
#pdf   11  -11  1.000000e+00  1.000000e+00  1.600000e+03  1.000000e+00  1.000000e+00
</event>
<event>
     5  9999  1.000000e+00  1.600000e+03  8.079897e-03  9.131846e-02
       11    -1     0     0     0     0  0.0000000000e+00  0.0000000000e+00  8.0000000000e+02  8.0000000000e+02  0.0000000000e+00 0. 9.
      -11    -1     0     0     0     0  0.0000000000e+00  0.0000000000e+00 -8.0000000000e+02  8.0000000000e+02  0.0000000000e+00 0. 9.
       23     2     1     2     0     0  0.0000000000e+00  0.0000000000e+00  0.0000000000e+00  1.6000000000e+03  1.6000000000e+03 0. 9.
        2     1     3     0   101     0  5.5161036255e+02 -5.0826344086e+02  2.7819808358e+02  8.0000000000e+02  3.3000000000e-01 0. 9.
       -2     1     3     0     0   101 -5.5161036255e+02  5.0826344086e+02 -2.7819808358e+02  8.0000000000e+02  3.3000000000e-01 0. 9.
#pdf   11  -11  1.000000e+00  1.000000e+00  1.600000e+03  1.000000e+00  1.000000e+00
</event>
<event>
     5  9999  1.000000e+00  1.600000e+03  8.079897e-03  9.131846e-02
       11    -1     0     0     0     0  0.0000000000e+00  0.0000000000e+00  8.0000000000e+02  8.0000000000e+02  0.0000000000e+00 0. 9.
      -11    -1     0     0     0     0  0.0000000000e+00  0.0000000000e+00 -8.0000000000e+02  8.0000000000e+02  0.0000000000e+00 0. 9.
       23     2     1     2     0     0  0.0000000000e+00  0.0000000000e+00  0.0000000000e+00  1.6000000000e+03  1.6000000000e+03 0. 9.
        2     1     3     0   101     0 -6.0492210104e+01 -2.8116912258e+02  7.4651490817e+02  8.0000000000e+02  3.3000000000e-01 0. 9.
       -2     1     3     0     0   101  6.0492210104e+01  2.8116912258e+02 -7.4651490817e+02  8.0000000000e+02  3.3000000000e-01 0. 9.
#pdf   11  -11  1.000000e+00  1.000000e+00  1.600000e+03  1.000000e+00  1.000000e+00
</event>
<event>
     5  9999  1.000000e+00  1.600000e+03  8.079897e-03  9.131846e-02
       11    -1     0     0     0     0  0.0000000000e+00  0.0000000000e+00  8.0000000000e+02  8.0000000000e+02  0.0000000000e+00 0. 9.
      -11    -1     0     0     0     0  0.0000000000e+00  0.0000000000e+00 -8.0000000000e+02  8.0000000000e+02  0.0000000000e+00 0. 9.
       23     2     1     2     0     0  0.0000000000e+00  0.0000000000e+00  0.0000000000e+00  1.6000000000e+03  1.6000000000e+03 0. 9.
        2     1     3     0   101     0  2.6980372372e+02  1.6979576429e+02  7.3374058099e+02  8.0000000000e+02  3.3000000000e-01 0. 9.
       -2     1     3     0     0   101 -2.6980372372e+02 -1.6979576429e+02 -7.3374058099e+02  8.0000000000e+02  3.3000000000e-01 0. 9.
#pdf   11  -11  1.000000e+00  1.000000e+00  1.600000e+03  1.000000e+00  1.000000e+00
</event>
<event>
     5  9999  1.000000e+00  1.600000e+03  8.079897e-03  9.131846e-02
       11    -1     0     0     0     0  0.0000000000e+00  0.0000000000e+00  8.0000000000e+02  8.0000000000e+02  0.0000000000e+00 0. 9.
      -11    -1     0     0     0     0  0.0000000000e+00  0.0000000000e+00 -8.0000000000e+02  8.0000000000e+02  0.0000000000e+00 0. 9.
       23     2     1     2     0     0  0.0000000000e+00  0.0000000000e+00  0.0000000000e+00  1.6000000000e+03  1.6000000000e+03 0. 9.
        2     1     3     0   101     0  1.0528211002e+02  7.7628570040e+02  1.6216066033e+02  8.0000000000e+02  3.3000000000e-01 0. 9.
       -2     1     3     0     0   101 -1.0528211002e+02 -7.7628570040e+02 -1.6216066033e+02  8.0000000000e+02  3.3000000000e-01 0. 9.
#pdf   11  -11  1.000000e+00  1.000000e+00  1.600000e+03  1.000000e+00  1.000000e+00
</event>
<event>
     5  9999  1.000000e+00  1.600000e+03  8.079897e-03  9.131846e-02
       11    -1     0     0     0     0  0.0000000000e+00  0.0000000000e+00  8.0000000000e+02  8.0000000000e+02  0.0000000000e+00 0. 9.
      -11    -1     0     0     0     0  0.0000000000e+00  0.0000000000e+00 -8.0000000000e+02  8.0000000000e+02  0.0000000000e+00 0. 9.
       23     2     1     2     0     0  0.0000000000e+00  0.0000000000e+00  0.0000000000e+00  1.6000000000e+03  1.6000000000e+03 0. 9.
        2     1     3     0   101     0 -1.1179487644e+02 -3.7025719889e+02  7.0029379790e+02  8.0000000000e+02  3.3000000000e-01 0. 9.
       -2     1     3     0     0   101  1.1179487644e+02  3.7025719889e+02 -7.0029379790e+02  8.0000000000e+02  3.3000000000e-01 0. 9.
#pdf   11  -11  1.000000e+00  1.000000e+00  1.600000e+03  1.000000e+00  1.000000e+00
</event>
<event>
     5  9999  1.000000e+00  1.600000e+03  8.079897e-03  9.131846e-02
       11    -1     0     0     0     0  0.0000000000e+00  0.0000000000e+00  8.0000000000e+02  8.0000000000e+02  0.0000000000e+00 0. 9.
      -11    -1     0     0     0     0  0.0000000000e+00  0.0000000000e+00 -8.0000000000e+02  8.0000000000e+02  0.0000000000e+00 0. 9.
       23     2     1     2     0     0  0.0000000000e+00  0.0000000000e+00  0.0000000000e+00  1.6000000000e+03  1.6000000000e+03 0. 9.
        2     1     3     0   101     0  1.7716231087e+02 -7.3963538331e+02  2.4809858215e+02  8.0000000000e+02  3.3000000000e-01 0. 9.
       -2     1     3     0     0   101 -1.7716231087e+02  7.3963538331e+02 -2.4809858215e+02  8.0000000000e+02  3.3000000000e-01 0. 9.
#pdf   11  -11  1.000000e+00  1.000000e+00  1.600000e+03  1.000000e+00  1.000000e+00
</event>
<event>
     5  9999  1.000000e+00  1.600000e+03  8.079897e-03  9.131846e-02
       11    -1     0     0     0     0  0.0000000000e+00  0.0000000000e+00  8.0000000000e+02  8.0000000000e+02  0.0000000000e+00 0. 9.
      -11    -1     0     0     0     0  0.0000000000e+00  0.0000000000e+00 -8.0000000000e+02  8.0000000000e+02  0.0000000000e+00 0. 9.
       23     2     1     2     0     0  0.0000000000e+00  0.0000000000e+00  0.0000000000e+00  1.6000000000e+03  1.6000000000e+03 0. 9.
        2     1     3     0   101     0 -6.5728517527e+02 -4.9706312363e+01  4.5332700337e+02  8.0000000000e+02  3.3000000000e-01 0. 9.
       -2     1     3     0     0   101  6.5728517527e+02  4.9706312363e+01 -4.5332700337e+02  8.0000000000e+02  3.3000000000e-01 0. 9.
#pdf   11  -11  1.000000e+00  1.000000e+00  1.600000e+03  1.000000e+00  1.000000e+00
</event>
<event>
     5  9999  1.000000e+00  1.600000e+03  8.079897e-03  9.131846e-02
       11    -1     0     0     0     0  0.0000000000e+00  0.0000000000e+00  8.0000000000e+02  8.0000000000e+02  0.0000000000e+00 0. 9.
      -11    -1     0     0     0     0  0.0000000000e+00  0.0000000000e+00 -8.0000000000e+02  8.0000000000e+02  0.0000000000e+00 0. 9.
       23     2     1     2     0     0  0.0000000000e+00  0.0000000000e+00  0.0000000000e+00  1.6000000000e+03  1.6000000000e+03 0. 9.
        2     1     3     0   101     0 -8.5997620692e+01  7.5191663277e+02  2.5927915014e+02  8.0000000000e+02  3.3000000000e-01 0. 9.
       -2     1     3     0     0   101  8.5997620692e+01 -7.5191663277e+02 -2.5927915014e+02  8.0000000000e+02  3.3000000000e-01 0. 9.
#pdf   11  -11  1.000000e+00  1.000000e+00  1.600000e+03  1.000000e+00  1.000000e+00
</event>
<event>
     5  9999  1.000000e+00  1.600000e+03  8.079897e-03  9.131846e-02
       11    -1     0     0     0     0  0.0000000000e+00  0.0000000000e+00  8.0000000000e+02  8.0000000000e+02  0.0000000000e+00 0. 9.
      -11    -1     0     0     0     0  0.0000000000e+00  0.0000000000e+00 -8.0000000000e+02  8.0000000000e+02  0.0000000000e+00 0. 9.
       23     2     1     2     0     0  0.0000000000e+00  0.0000000000e+00  0.0000000000e+00  1.6000000000e+03  1.6000000000e+03 0. 9.
        2     1     3     0   101     0 -4.4105980403e+02  4.9951082728e+02  4.4266813055e+02  8.0000000000e+02  3.3000000000e-01 0. 9.
       -2     1     3     0     0   101  4.4105980403e+02 -4.9951082728e+02 -4.4266813055e+02  8.0000000000e+02  3.3000000000e-01 0. 9.
#pdf   11  -11  1.000000e+00  1.000000e+00  1.600000e+03  1.000000e+00  1.000000e+00
</event>
<event>
     5  9999  1.000000e+00  1.600000e+03  8.079897e-03  9.131846e-02
       11    -1     0     0     0     0  0.0000000000e+00  0.0000000000e+00  8.0000000000e+02  8.0000000000e+02  0.0000000000e+00 0. 9.
      -11    -1     0     0     0     0  0.0000000000e+00  0.0000000000e+00 -8.0000000000e+02  8.0000000000e+02  0.0000000000e+00 0. 9.
       23     2     1     2     0     0  0.0000000000e+00  0.0000000000e+00  0.0000000000e+00  1.6000000000e+03  1.6000000000e+03 0. 9.
        2     1     3     0   101     0  3.5179843271e+02  5.3378812217e+02  4.8094489755e+02  8.0000000000e+02  3.3000000000e-01 0. 9.
       -2     1     3     0     0   101 -3.5179843271e+02 -5.3378812217e+02 -4.8094489755e+02  8.0000000000e+02  3.3000000000e-01 0. 9.
#pdf   11  -11  1.000000e+00  1.000000e+00  1.600000e+03  1.000000e+00  1.000000e+00
</event>
<event>
     5  9999  1.000000e+00  1.600000e+03  8.079897e-03  9.131846e-02
       11    -1     0     0     0     0  0.0000000000e+00  0.0000000000e+00  8.0000000000e+02  8.0000000000e+02  0.0000000000e+00 0. 9.
      -11    -1     0     0     0     0  0.0000000000e+00  0.0000000000e+00 -8.0000000000e+02  8.0000000000e+02  0.0000000000e+00 0. 9.
       23     2     1     2     0     0  0.0000000000e+00  0.0000000000e+00  0.0000000000e+00  1.6000000000e+03  1.6000000000e+03 0. 9.
        2     1     3     0   101     0 -1.1594848549e+00 -4.5199042346e+02  6.6007818006e+02  8.0000000000e+02  3.3000000000e-01 0. 9.
       -2     1     3     0     0   101  1.1594848549e+00  4.5199042346e+02 -6.6007818006e+02  8.0000000000e+02  3.3000000000e-01 0. 9.
#pdf   11  -11  1.000000e+00  1.000000e+00  1.600000e+03  1.000000e+00  1.000000e+00
</event>
<event>
     5  9999  1.000000e+00  1.600000e+03  8.079897e-03  9.131846e-02
       11    -1     0     0     0     0  0.0000000000e+00  0.0000000000e+00  8.0000000000e+02  8.0000000000e+02  0.0000000000e+00 0. 9.
      -11    -1     0     0     0     0  0.0000000000e+00  0.0000000000e+00 -8.0000000000e+02  8.0000000000e+02  0.0000000000e+00 0. 9.
       23     2     1     2     0     0  0.0000000000e+00  0.0000000000e+00  0.0000000000e+00  1.6000000000e+03  1.6000000000e+03 0. 9.
        2     1     3     0   101     0 -2.2135922096e+02  1.3043044577e+02  7.5761988174e+02  8.0000000000e+02  3.3000000000e-01 0. 9.
       -2     1     3     0     0   101  2.2135922096e+02 -1.3043044577e+02 -7.5761988174e+02  8.0000000000e+02  3.3000000000e-01 0. 9.
#pdf   11  -11  1.000000e+00  1.000000e+00  1.600000e+03  1.000000e+00  1.000000e+00
</event>
<event>
     5  9999  1.000000e+00  1.600000e+03  8.079897e-03  9.131846e-02
       11    -1     0     0     0     0  0.0000000000e+00  0.0000000000e+00  8.0000000000e+02  8.0000000000e+02  0.0000000000e+00 0. 9.
      -11    -1     0     0     0     0  0.0000000000e+00  0.0000000000e+00 -8.0000000000e+02  8.0000000000e+02  0.0000000000e+00 0. 9.
       23     2     1     2     0     0  0.0000000000e+00  0.0000000000e+00  0.0000000000e+00  1.6000000000e+03  1.6000000000e+03 0. 9.
        2     1     3     0   101     0 -2.1084582223e+02 -7.5462092409e+02 -1.6152767958e+02  8.0000000000e+02  3.3000000000e-01 0. 9.
       -2     1     3     0     0   101  2.1084582223e+02  7.5462092409e+02  1.6152767958e+02  8.0000000000e+02  3.3000000000e-01 0. 9.
#pdf   11  -11  1.000000e+00  1.000000e+00  1.600000e+03  1.000000e+00  1.000000e+00
</event>
<event>
     5  9999  1.000000e+00  1.600000e+03  8.079897e-03  9.131846e-02
       11    -1     0     0     0     0  0.0000000000e+00  0.0000000000e+00  8.0000000000e+02  8.0000000000e+02  0.0000000000e+00 0. 9.
      -11    -1     0     0     0     0  0.0000000000e+00  0.0000000000e+00 -8.0000000000e+02  8.0000000000e+02  0.0000000000e+00 0. 9.
       23     2     1     2     0     0  0.0000000000e+00  0.0000000000e+00  0.0000000000e+00  1.6000000000e+03  1.6000000000e+03 0. 9.
        2     1     3     0   101     0  6.9964695341e+02 -2.1386065811e+02  3.2366286564e+02  8.0000000000e+02  3.3000000000e-01 0. 9.
       -2     1     3     0     0   101 -6.9964695341e+02  2.1386065811e+02 -3.2366286564e+02  8.0000000000e+02  3.3000000000e-01 0. 9.
#pdf   11  -11  1.000000e+00  1.000000e+00  1.600000e+03  1.000000e+00  1.000000e+00
</event>
<event>
     5  9999  1.000000e+00  1.600000e+03  8.079897e-03  9.131846e-02
       11    -1     0     0     0     0  0.0000000000e+00  0.0000000000e+00  8.0000000000e+02  8.0000000000e+02  0.0000000000e+00 0. 9.
      -11    -1     0     0     0     0  0.0000000000e+00  0.0000000000e+00 -8.0000000000e+02  8.0000000000e+02  0.0000000000e+00 0. 9.
       23     2     1     2     0     0  0.0000000000e+00  0.0000000000e+00  0.0000000000e+00  1.6000000000e+03  1.6000000000e+03 0. 9.
        2     1     3     0   101     0  2.0776382346e+01  5.0157016500e+02  6.2289293030e+02  8.0000000000e+02  3.3000000000e-01 0. 9.
       -2     1     3     0     0   101 -2.0776382346e+01 -5.0157016500e+02 -6.2289293030e+02  8.0000000000e+02  3.3000000000e-01 0. 9.
#pdf   11  -11  1.000000e+00  1.000000e+00  1.600000e+03  1.000000e+00  1.000000e+00
</event>
<event>
     5  9999  1.000000e+00  1.600000e+03  8.079897e-03  9.131846e-02
       11    -1     0     0     0     0  0.0000000000e+00  0.0000000000e+00  8.0000000000e+02  8.0000000000e+02  0.0000000000e+00 0. 9.
      -11    -1     0     0     0     0  0.0000000000e+00  0.0000000000e+00 -8.0000000000e+02  8.0000000000e+02  0.0000000000e+00 0. 9.
       23     2     1     2     0     0  0.0000000000e+00  0.0000000000e+00  0.0000000000e+00  1.6000000000e+03  1.6000000000e+03 0. 9.
        2     1     3     0   101     0 -4.5072180708e+02 -6.0839336625e+02 -2.5827747797e+02  8.0000000000e+02  3.3000000000e-01 0. 9.
       -2     1     3     0     0   101  4.5072180708e+02  6.0839336625e+02  2.5827747797e+02  8.0000000000e+02  3.3000000000e-01 0. 9.
#pdf   11  -11  1.000000e+00  1.000000e+00  1.600000e+03  1.000000e+00  1.000000e+00
</event>
<event>
     5  9999  1.000000e+00  1.600000e+03  8.079897e-03  9.131846e-02
       11    -1     0     0     0     0  0.0000000000e+00  0.0000000000e+00  8.0000000000e+02  8.0000000000e+02  0.0000000000e+00 0. 9.
      -11    -1     0     0     0     0  0.0000000000e+00  0.0000000000e+00 -8.0000000000e+02  8.0000000000e+02  0.0000000000e+00 0. 9.
       23     2     1     2     0     0  0.0000000000e+00  0.0000000000e+00  0.0000000000e+00  1.6000000000e+03  1.6000000000e+03 0. 9.
        2     1     3     0   101     0 -6.0239950944e+02  2.3022432587e+02  4.7340414226e+02  8.0000000000e+02  3.3000000000e-01 0. 9.
       -2     1     3     0     0   101  6.0239950944e+02 -2.3022432587e+02 -4.7340414226e+02  8.0000000000e+02  3.3000000000e-01 0. 9.
#pdf   11  -11  1.000000e+00  1.000000e+00  1.600000e+03  1.000000e+00  1.000000e+00
</event>
<event>
     5  9999  1.000000e+00  1.600000e+03  8.079897e-03  9.131846e-02
       11    -1     0     0     0     0  0.0000000000e+00  0.0000000000e+00  8.0000000000e+02  8.0000000000e+02  0.0000000000e+00 0. 9.
      -11    -1     0     0     0     0  0.0000000000e+00  0.0000000000e+00 -8.0000000000e+02  8.0000000000e+02  0.0000000000e+00 0. 9.
       23     2     1     2     0     0  0.0000000000e+00  0.0000000000e+00  0.0000000000e+00  1.6000000000e+03  1.6000000000e+03 0. 9.
        2     1     3     0   101     0  1.5164719997e+02 -2.7258439412e+02  7.3668226932e+02  8.0000000000e+02  3.3000000000e-01 0. 9.
       -2     1     3     0     0   101 -1.5164719997e+02  2.7258439412e+02 -7.3668226932e+02  8.0000000000e+02  3.3000000000e-01 0. 9.
#pdf   11  -11  1.000000e+00  1.000000e+00  1.600000e+03  1.000000e+00  1.000000e+00
</event>
<event>
     5  9999  1.000000e+00  1.600000e+03  8.079897e-03  9.131846e-02
       11    -1     0     0     0     0  0.0000000000e+00  0.0000000000e+00  8.0000000000e+02  8.0000000000e+02  0.0000000000e+00 0. 9.
      -11    -1     0     0     0     0  0.0000000000e+00  0.0000000000e+00 -8.0000000000e+02  8.0000000000e+02  0.0000000000e+00 0. 9.
       23     2     1     2     0     0  0.0000000000e+00  0.0000000000e+00  0.0000000000e+00  1.6000000000e+03  1.6000000000e+03 0. 9.
        2     1     3     0   101     0  3.4768071989e+01 -7.9541299042e+02  7.8161671783e+01  8.0000000000e+02  3.3000000000e-01 0. 9.
       -2     1     3     0     0   101 -3.4768071989e+01  7.9541299042e+02 -7.8161671783e+01  8.0000000000e+02  3.3000000000e-01 0. 9.
#pdf   11  -11  1.000000e+00  1.000000e+00  1.600000e+03  1.000000e+00  1.000000e+00
</event>
<event>
     5  9999  1.000000e+00  1.600000e+03  8.079897e-03  9.131846e-02
       11    -1     0     0     0     0  0.0000000000e+00  0.0000000000e+00  8.0000000000e+02  8.0000000000e+02  0.0000000000e+00 0. 9.
      -11    -1     0     0     0     0  0.0000000000e+00  0.0000000000e+00 -8.0000000000e+02  8.0000000000e+02  0.0000000000e+00 0. 9.
       23     2     1     2     0     0  0.0000000000e+00  0.0000000000e+00  0.0000000000e+00  1.6000000000e+03  1.6000000000e+03 0. 9.
        2     1     3     0   101     0 -2.5833875944e+02  1.7810374853e+02  7.3589403533e+02  8.0000000000e+02  3.3000000000e-01 0. 9.
       -2     1     3     0     0   101  2.5833875944e+02 -1.7810374853e+02 -7.3589403533e+02  8.0000000000e+02  3.3000000000e-01 0. 9.
#pdf   11  -11  1.000000e+00  1.000000e+00  1.600000e+03  1.000000e+00  1.000000e+00
</event>
<event>
     5  9999  1.000000e+00  1.600000e+03  8.079897e-03  9.131846e-02
       11    -1     0     0     0     0  0.0000000000e+00  0.0000000000e+00  8.0000000000e+02  8.0000000000e+02  0.0000000000e+00 0. 9.
      -11    -1     0     0     0     0  0.0000000000e+00  0.0000000000e+00 -8.0000000000e+02  8.0000000000e+02  0.0000000000e+00 0. 9.
       23     2     1     2     0     0  0.0000000000e+00  0.0000000000e+00  0.0000000000e+00  1.6000000000e+03  1.6000000000e+03 0. 9.
        2     1     3     0   101     0  2.1940035060e+02 -7.4411824428e+02  1.9532387407e+02  8.0000000000e+02  3.3000000000e-01 0. 9.
       -2     1     3     0     0   101 -2.1940035060e+02  7.4411824428e+02 -1.9532387407e+02  8.0000000000e+02  3.3000000000e-01 0. 9.
#pdf   11  -11  1.000000e+00  1.000000e+00  1.600000e+03  1.000000e+00  1.000000e+00
</event>
<event>
     5  9999  1.000000e+00  1.600000e+03  8.079897e-03  9.131846e-02
       11    -1     0     0     0     0  0.0000000000e+00  0.0000000000e+00  8.0000000000e+02  8.0000000000e+02  0.0000000000e+00 0. 9.
      -11    -1     0     0     0     0  0.0000000000e+00  0.0000000000e+00 -8.0000000000e+02  8.0000000000e+02  0.0000000000e+00 0. 9.
       23     2     1     2     0     0  0.0000000000e+00  0.0000000000e+00  0.0000000000e+00  1.6000000000e+03  1.6000000000e+03 0. 9.
        2     1     3     0   101     0 -4.3452571094e+02 -2.8381000446e+02  6.0880142822e+02  8.0000000000e+02  3.3000000000e-01 0. 9.
       -2     1     3     0     0   101  4.3452571094e+02  2.8381000446e+02 -6.0880142822e+02  8.0000000000e+02  3.3000000000e-01 0. 9.
#pdf   11  -11  1.000000e+00  1.000000e+00  1.600000e+03  1.000000e+00  1.000000e+00
</event>
<event>
     5  9999  1.000000e+00  1.600000e+03  8.079897e-03  9.131846e-02
       11    -1     0     0     0     0  0.0000000000e+00  0.0000000000e+00  8.0000000000e+02  8.0000000000e+02  0.0000000000e+00 0. 9.
      -11    -1     0     0     0     0  0.0000000000e+00  0.0000000000e+00 -8.0000000000e+02  8.0000000000e+02  0.0000000000e+00 0. 9.
       23     2     1     2     0     0  0.0000000000e+00  0.0000000000e+00  0.0000000000e+00  1.6000000000e+03  1.6000000000e+03 0. 9.
        2     1     3     0   101     0 -2.1752600710e+02  1.7237884846e+02  7.5031184180e+02  8.0000000000e+02  3.3000000000e-01 0. 9.
       -2     1     3     0     0   101  2.1752600710e+02 -1.7237884846e+02 -7.5031184180e+02  8.0000000000e+02  3.3000000000e-01 0. 9.
#pdf   11  -11  1.000000e+00  1.000000e+00  1.600000e+03  1.000000e+00  1.000000e+00
</event>
<event>
     5  9999  1.000000e+00  1.600000e+03  8.079897e-03  9.131846e-02
       11    -1     0     0     0     0  0.0000000000e+00  0.0000000000e+00  8.0000000000e+02  8.0000000000e+02  0.0000000000e+00 0. 9.
      -11    -1     0     0     0     0  0.0000000000e+00  0.0000000000e+00 -8.0000000000e+02  8.0000000000e+02  0.0000000000e+00 0. 9.
       23     2     1     2     0     0  0.0000000000e+00  0.0000000000e+00  0.0000000000e+00  1.6000000000e+03  1.6000000000e+03 0. 9.
        2     1     3     0   101     0  7.8753693581e+02 -7.9231884137e+01  1.1622295113e+02  8.0000000000e+02  3.3000000000e-01 0. 9.
       -2     1     3     0     0   101 -7.8753693581e+02  7.9231884137e+01 -1.1622295113e+02  8.0000000000e+02  3.3000000000e-01 0. 9.
#pdf   11  -11  1.000000e+00  1.000000e+00  1.600000e+03  1.000000e+00  1.000000e+00
</event>
<event>
     5  9999  1.000000e+00  1.600000e+03  8.079897e-03  9.131846e-02
       11    -1     0     0     0     0  0.0000000000e+00  0.0000000000e+00  8.0000000000e+02  8.0000000000e+02  0.0000000000e+00 0. 9.
      -11    -1     0     0     0     0  0.0000000000e+00  0.0000000000e+00 -8.0000000000e+02  8.0000000000e+02  0.0000000000e+00 0. 9.
       23     2     1     2     0     0  0.0000000000e+00  0.0000000000e+00  0.0000000000e+00  1.6000000000e+03  1.6000000000e+03 0. 9.
        2     1     3     0   101     0  3.6928311953e+02  4.0015593909e+02  5.8609307549e+02  8.0000000000e+02  3.3000000000e-01 0. 9.
       -2     1     3     0     0   101 -3.6928311953e+02 -4.0015593909e+02 -5.8609307549e+02  8.0000000000e+02  3.3000000000e-01 0. 9.
#pdf   11  -11  1.000000e+00  1.000000e+00  1.600000e+03  1.000000e+00  1.000000e+00
</event>
<event>
     5  9999  1.000000e+00  1.600000e+03  8.079897e-03  9.131846e-02
       11    -1     0     0     0     0  0.0000000000e+00  0.0000000000e+00  8.0000000000e+02  8.0000000000e+02  0.0000000000e+00 0. 9.
      -11    -1     0     0     0     0  0.0000000000e+00  0.0000000000e+00 -8.0000000000e+02  8.0000000000e+02  0.0000000000e+00 0. 9.
       23     2     1     2     0     0  0.0000000000e+00  0.0000000000e+00  0.0000000000e+00  1.6000000000e+03  1.6000000000e+03 0. 9.
        2     1     3     0   101     0  5.5881280993e+02  3.5464601535e+02 -4.4939330030e+02  8.0000000000e+02  3.3000000000e-01 0. 9.
       -2     1     3     0     0   101 -5.5881280993e+02 -3.5464601535e+02  4.4939330030e+02  8.0000000000e+02  3.3000000000e-01 0. 9.
#pdf   11  -11  1.000000e+00  1.000000e+00  1.600000e+03  1.000000e+00  1.000000e+00
</event>
<event>
     5  9999  1.000000e+00  1.600000e+03  8.079897e-03  9.131846e-02
       11    -1     0     0     0     0  0.0000000000e+00  0.0000000000e+00  8.0000000000e+02  8.0000000000e+02  0.0000000000e+00 0. 9.
      -11    -1     0     0     0     0  0.0000000000e+00  0.0000000000e+00 -8.0000000000e+02  8.0000000000e+02  0.0000000000e+00 0. 9.
       23     2     1     2     0     0  0.0000000000e+00  0.0000000000e+00  0.0000000000e+00  1.6000000000e+03  1.6000000000e+03 0. 9.
        2     1     3     0   101     0  2.8305882470e+02 -6.5039204217e+02  3.6995646277e+02  8.0000000000e+02  3.3000000000e-01 0. 9.
       -2     1     3     0     0   101 -2.8305882470e+02  6.5039204217e+02 -3.6995646277e+02  8.0000000000e+02  3.3000000000e-01 0. 9.
#pdf   11  -11  1.000000e+00  1.000000e+00  1.600000e+03  1.000000e+00  1.000000e+00
</event>
<event>
     5  9999  1.000000e+00  1.600000e+03  8.079897e-03  9.131846e-02
       11    -1     0     0     0     0  0.0000000000e+00  0.0000000000e+00  8.0000000000e+02  8.0000000000e+02  0.0000000000e+00 0. 9.
      -11    -1     0     0     0     0  0.0000000000e+00  0.0000000000e+00 -8.0000000000e+02  8.0000000000e+02  0.0000000000e+00 0. 9.
       23     2     1     2     0     0  0.0000000000e+00  0.0000000000e+00  0.0000000000e+00  1.6000000000e+03  1.6000000000e+03 0. 9.
        2     1     3     0   101     0  1.8090881998e+02 -4.1794886056e+02  6.5771623054e+02  8.0000000000e+02  3.3000000000e-01 0. 9.
       -2     1     3     0     0   101 -1.8090881998e+02  4.1794886056e+02 -6.5771623054e+02  8.0000000000e+02  3.3000000000e-01 0. 9.
#pdf   11  -11  1.000000e+00  1.000000e+00  1.600000e+03  1.000000e+00  1.000000e+00
</event>
<event>
     5  9999  1.000000e+00  1.600000e+03  8.079897e-03  9.131846e-02
       11    -1     0     0     0     0  0.0000000000e+00  0.0000000000e+00  8.0000000000e+02  8.0000000000e+02  0.0000000000e+00 0. 9.
      -11    -1     0     0     0     0  0.0000000000e+00  0.0000000000e+00 -8.0000000000e+02  8.0000000000e+02  0.0000000000e+00 0. 9.
       23     2     1     2     0     0  0.0000000000e+00  0.0000000000e+00  0.0000000000e+00  1.6000000000e+03  1.6000000000e+03 0. 9.
        2     1     3     0   101     0 -9.5259876057e+01  6.0121053129e+02  5.1910629372e+02  8.0000000000e+02  3.3000000000e-01 0. 9.
       -2     1     3     0     0   101  9.5259876057e+01 -6.0121053129e+02 -5.1910629372e+02  8.0000000000e+02  3.3000000000e-01 0. 9.
#pdf   11  -11  1.000000e+00  1.000000e+00  1.600000e+03  1.000000e+00  1.000000e+00
</event>
<event>
     5  9999  1.000000e+00  1.600000e+03  8.079897e-03  9.131846e-02
       11    -1     0     0     0     0  0.0000000000e+00  0.0000000000e+00  8.0000000000e+02  8.0000000000e+02  0.0000000000e+00 0. 9.
      -11    -1     0     0     0     0  0.0000000000e+00  0.0000000000e+00 -8.0000000000e+02  8.0000000000e+02  0.0000000000e+00 0. 9.
       23     2     1     2     0     0  0.0000000000e+00  0.0000000000e+00  0.0000000000e+00  1.6000000000e+03  1.6000000000e+03 0. 9.
        2     1     3     0   101     0  4.5484009896e+02  6.4439225313e+02 -1.3371237635e+02  8.0000000000e+02  3.3000000000e-01 0. 9.
       -2     1     3     0     0   101 -4.5484009896e+02 -6.4439225313e+02  1.3371237635e+02  8.0000000000e+02  3.3000000000e-01 0. 9.
#pdf   11  -11  1.000000e+00  1.000000e+00  1.600000e+03  1.000000e+00  1.000000e+00
</event>
<event>
     5  9999  1.000000e+00  1.600000e+03  8.079897e-03  9.131846e-02
       11    -1     0     0     0     0  0.0000000000e+00  0.0000000000e+00  8.0000000000e+02  8.0000000000e+02  0.0000000000e+00 0. 9.
      -11    -1     0     0     0     0  0.0000000000e+00  0.0000000000e+00 -8.0000000000e+02  8.0000000000e+02  0.0000000000e+00 0. 9.
       23     2     1     2     0     0  0.0000000000e+00  0.0000000000e+00  0.0000000000e+00  1.6000000000e+03  1.6000000000e+03 0. 9.
        2     1     3     0   101     0 -7.4379526551e+02 -1.6121822564e+02 -2.4653027769e+02  8.0000000000e+02  3.3000000000e-01 0. 9.
       -2     1     3     0     0   101  7.4379526551e+02  1.6121822564e+02  2.4653027769e+02  8.0000000000e+02  3.3000000000e-01 0. 9.
#pdf   11  -11  1.000000e+00  1.000000e+00  1.600000e+03  1.000000e+00  1.000000e+00
</event>
<event>
     5  9999  1.000000e+00  1.600000e+03  8.079897e-03  9.131846e-02
       11    -1     0     0     0     0  0.0000000000e+00  0.0000000000e+00  8.0000000000e+02  8.0000000000e+02  0.0000000000e+00 0. 9.
      -11    -1     0     0     0     0  0.0000000000e+00  0.0000000000e+00 -8.0000000000e+02  8.0000000000e+02  0.0000000000e+00 0. 9.
       23     2     1     2     0     0  0.0000000000e+00  0.0000000000e+00  0.0000000000e+00  1.6000000000e+03  1.6000000000e+03 0. 9.
        2     1     3     0   101     0 -4.9176643936e+02  2.7452644821e+02  5.6815569121e+02  8.0000000000e+02  3.3000000000e-01 0. 9.
       -2     1     3     0     0   101  4.9176643936e+02 -2.7452644821e+02 -5.6815569121e+02  8.0000000000e+02  3.3000000000e-01 0. 9.
#pdf   11  -11  1.000000e+00  1.000000e+00  1.600000e+03  1.000000e+00  1.000000e+00
</event>
<event>
     5  9999  1.000000e+00  1.600000e+03  8.079897e-03  9.131846e-02
       11    -1     0     0     0     0  0.0000000000e+00  0.0000000000e+00  8.0000000000e+02  8.0000000000e+02  0.0000000000e+00 0. 9.
      -11    -1     0     0     0     0  0.0000000000e+00  0.0000000000e+00 -8.0000000000e+02  8.0000000000e+02  0.0000000000e+00 0. 9.
       23     2     1     2     0     0  0.0000000000e+00  0.0000000000e+00  0.0000000000e+00  1.6000000000e+03  1.6000000000e+03 0. 9.
        2     1     3     0   101     0 -2.9619974071e+02  4.9714297415e+02  5.5237167556e+02  8.0000000000e+02  3.3000000000e-01 0. 9.
       -2     1     3     0     0   101  2.9619974071e+02 -4.9714297415e+02 -5.5237167556e+02  8.0000000000e+02  3.3000000000e-01 0. 9.
#pdf   11  -11  1.000000e+00  1.000000e+00  1.600000e+03  1.000000e+00  1.000000e+00
</event>
<event>
     5  9999  1.000000e+00  1.600000e+03  8.079897e-03  9.131846e-02
       11    -1     0     0     0     0  0.0000000000e+00  0.0000000000e+00  8.0000000000e+02  8.0000000000e+02  0.0000000000e+00 0. 9.
      -11    -1     0     0     0     0  0.0000000000e+00  0.0000000000e+00 -8.0000000000e+02  8.0000000000e+02  0.0000000000e+00 0. 9.
       23     2     1     2     0     0  0.0000000000e+00  0.0000000000e+00  0.0000000000e+00  1.6000000000e+03  1.6000000000e+03 0. 9.
        2     1     3     0   101     0 -3.7404835182e+02 -5.5384988872e+02  4.3970219736e+02  8.0000000000e+02  3.3000000000e-01 0. 9.
       -2     1     3     0     0   101  3.7404835182e+02  5.5384988872e+02 -4.3970219736e+02  8.0000000000e+02  3.3000000000e-01 0. 9.
#pdf   11  -11  1.000000e+00  1.000000e+00  1.600000e+03  1.000000e+00  1.000000e+00
</event>
<event>
     5  9999  1.000000e+00  1.600000e+03  8.079897e-03  9.131846e-02
       11    -1     0     0     0     0  0.0000000000e+00  0.0000000000e+00  8.0000000000e+02  8.0000000000e+02  0.0000000000e+00 0. 9.
      -11    -1     0     0     0     0  0.0000000000e+00  0.0000000000e+00 -8.0000000000e+02  8.0000000000e+02  0.0000000000e+00 0. 9.
       23     2     1     2     0     0  0.0000000000e+00  0.0000000000e+00  0.0000000000e+00  1.6000000000e+03  1.6000000000e+03 0. 9.
        2     1     3     0   101     0 -2.8298882613e+02 -7.4730442918e+02 -3.8122244299e+01  8.0000000000e+02  3.3000000000e-01 0. 9.
       -2     1     3     0     0   101  2.8298882613e+02  7.4730442918e+02  3.8122244299e+01  8.0000000000e+02  3.3000000000e-01 0. 9.
#pdf   11  -11  1.000000e+00  1.000000e+00  1.600000e+03  1.000000e+00  1.000000e+00
</event>
<event>
     5  9999  1.000000e+00  1.600000e+03  8.079897e-03  9.131846e-02
       11    -1     0     0     0     0  0.0000000000e+00  0.0000000000e+00  8.0000000000e+02  8.0000000000e+02  0.0000000000e+00 0. 9.
      -11    -1     0     0     0     0  0.0000000000e+00  0.0000000000e+00 -8.0000000000e+02  8.0000000000e+02  0.0000000000e+00 0. 9.
       23     2     1     2     0     0  0.0000000000e+00  0.0000000000e+00  0.0000000000e+00  1.6000000000e+03  1.6000000000e+03 0. 9.
        2     1     3     0   101     0 -6.0376468273e+02 -3.6466534987e+02  3.7747487544e+02  8.0000000000e+02  3.3000000000e-01 0. 9.
       -2     1     3     0     0   101  6.0376468273e+02  3.6466534987e+02 -3.7747487544e+02  8.0000000000e+02  3.3000000000e-01 0. 9.
#pdf   11  -11  1.000000e+00  1.000000e+00  1.600000e+03  1.000000e+00  1.000000e+00
</event>
<event>
     5  9999  1.000000e+00  1.600000e+03  8.079897e-03  9.131846e-02
       11    -1     0     0     0     0  0.0000000000e+00  0.0000000000e+00  8.0000000000e+02  8.0000000000e+02  0.0000000000e+00 0. 9.
      -11    -1     0     0     0     0  0.0000000000e+00  0.0000000000e+00 -8.0000000000e+02  8.0000000000e+02  0.0000000000e+00 0. 9.
       23     2     1     2     0     0  0.0000000000e+00  0.0000000000e+00  0.0000000000e+00  1.6000000000e+03  1.6000000000e+03 0. 9.
        2     1     3     0   101     0 -6.4149381393e+02  1.1311329270e+02  4.6442540930e+02  8.0000000000e+02  3.3000000000e-01 0. 9.
       -2     1     3     0     0   101  6.4149381393e+02 -1.1311329270e+02 -4.6442540930e+02  8.0000000000e+02  3.3000000000e-01 0. 9.
#pdf   11  -11  1.000000e+00  1.000000e+00  1.600000e+03  1.000000e+00  1.000000e+00
</event>
<event>
     5  9999  1.000000e+00  1.600000e+03  8.079897e-03  9.131846e-02
       11    -1     0     0     0     0  0.0000000000e+00  0.0000000000e+00  8.0000000000e+02  8.0000000000e+02  0.0000000000e+00 0. 9.
      -11    -1     0     0     0     0  0.0000000000e+00  0.0000000000e+00 -8.0000000000e+02  8.0000000000e+02  0.0000000000e+00 0. 9.
       23     2     1     2     0     0  0.0000000000e+00  0.0000000000e+00  0.0000000000e+00  1.6000000000e+03  1.6000000000e+03 0. 9.
        2     1     3     0   101     0 -5.8389033570e+02 -3.6363247767e+02  4.0846467186e+02  8.0000000000e+02  3.3000000000e-01 0. 9.
       -2     1     3     0     0   101  5.8389033570e+02  3.6363247767e+02 -4.0846467186e+02  8.0000000000e+02  3.3000000000e-01 0. 9.
#pdf   11  -11  1.000000e+00  1.000000e+00  1.600000e+03  1.000000e+00  1.000000e+00
</event>
<event>
     5  9999  1.000000e+00  1.600000e+03  8.079897e-03  9.131846e-02
       11    -1     0     0     0     0  0.0000000000e+00  0.0000000000e+00  8.0000000000e+02  8.0000000000e+02  0.0000000000e+00 0. 9.
      -11    -1     0     0     0     0  0.0000000000e+00  0.0000000000e+00 -8.0000000000e+02  8.0000000000e+02  0.0000000000e+00 0. 9.
       23     2     1     2     0     0  0.0000000000e+00  0.0000000000e+00  0.0000000000e+00  1.6000000000e+03  1.6000000000e+03 0. 9.
        2     1     3     0   101     0  1.0268255000e+02  3.0908834235e+02 -7.3069869416e+02  8.0000000000e+02  3.3000000000e-01 0. 9.
       -2     1     3     0     0   101 -1.0268255000e+02 -3.0908834235e+02  7.3069869416e+02  8.0000000000e+02  3.3000000000e-01 0. 9.
#pdf   11  -11  1.000000e+00  1.000000e+00  1.600000e+03  1.000000e+00  1.000000e+00
</event>
<event>
     5  9999  1.000000e+00  1.600000e+03  8.079897e-03  9.131846e-02
       11    -1     0     0     0     0  0.0000000000e+00  0.0000000000e+00  8.0000000000e+02  8.0000000000e+02  0.0000000000e+00 0. 9.
      -11    -1     0     0     0     0  0.0000000000e+00  0.0000000000e+00 -8.0000000000e+02  8.0000000000e+02  0.0000000000e+00 0. 9.
       23     2     1     2     0     0  0.0000000000e+00  0.0000000000e+00  0.0000000000e+00  1.6000000000e+03  1.6000000000e+03 0. 9.
        2     1     3     0   101     0  7.8061472596e+02 -1.7094911477e+02  3.7642275020e+01  8.0000000000e+02  3.3000000000e-01 0. 9.
       -2     1     3     0     0   101 -7.8061472596e+02  1.7094911477e+02 -3.7642275020e+01  8.0000000000e+02  3.3000000000e-01 0. 9.
#pdf   11  -11  1.000000e+00  1.000000e+00  1.600000e+03  1.000000e+00  1.000000e+00
</event>
<event>
     5  9999  1.000000e+00  1.600000e+03  8.079897e-03  9.131846e-02
       11    -1     0     0     0     0  0.0000000000e+00  0.0000000000e+00  8.0000000000e+02  8.0000000000e+02  0.0000000000e+00 0. 9.
      -11    -1     0     0     0     0  0.0000000000e+00  0.0000000000e+00 -8.0000000000e+02  8.0000000000e+02  0.0000000000e+00 0. 9.
       23     2     1     2     0     0  0.0000000000e+00  0.0000000000e+00  0.0000000000e+00  1.6000000000e+03  1.6000000000e+03 0. 9.
        2     1     3     0   101     0  1.5799387261e+02 -3.2668526090e+02  7.1296182761e+02  8.0000000000e+02  3.3000000000e-01 0. 9.
       -2     1     3     0     0   101 -1.5799387261e+02  3.2668526090e+02 -7.1296182761e+02  8.0000000000e+02  3.3000000000e-01 0. 9.
#pdf   11  -11  1.000000e+00  1.000000e+00  1.600000e+03  1.000000e+00  1.000000e+00
</event>
<event>
     5  9999  1.000000e+00  1.600000e+03  8.079897e-03  9.131846e-02
       11    -1     0     0     0     0  0.0000000000e+00  0.0000000000e+00  8.0000000000e+02  8.0000000000e+02  0.0000000000e+00 0. 9.
      -11    -1     0     0     0     0  0.0000000000e+00  0.0000000000e+00 -8.0000000000e+02  8.0000000000e+02  0.0000000000e+00 0. 9.
       23     2     1     2     0     0  0.0000000000e+00  0.0000000000e+00  0.0000000000e+00  1.6000000000e+03  1.6000000000e+03 0. 9.
        2     1     3     0   101     0  5.4003859858e+02  5.4542346140e+02  2.2554700374e+02  8.0000000000e+02  3.3000000000e-01 0. 9.
       -2     1     3     0     0   101 -5.4003859858e+02 -5.4542346140e+02 -2.2554700374e+02  8.0000000000e+02  3.3000000000e-01 0. 9.
#pdf   11  -11  1.000000e+00  1.000000e+00  1.600000e+03  1.000000e+00  1.000000e+00
</event>
<event>
     5  9999  1.000000e+00  1.600000e+03  8.079897e-03  9.131846e-02
       11    -1     0     0     0     0  0.0000000000e+00  0.0000000000e+00  8.0000000000e+02  8.0000000000e+02  0.0000000000e+00 0. 9.
      -11    -1     0     0     0     0  0.0000000000e+00  0.0000000000e+00 -8.0000000000e+02  8.0000000000e+02  0.0000000000e+00 0. 9.
       23     2     1     2     0     0  0.0000000000e+00  0.0000000000e+00  0.0000000000e+00  1.6000000000e+03  1.6000000000e+03 0. 9.
        2     1     3     0   101     0  3.3376506961e+02  6.7384754310e+02  2.7300230415e+02  8.0000000000e+02  3.3000000000e-01 0. 9.
       -2     1     3     0     0   101 -3.3376506961e+02 -6.7384754310e+02 -2.7300230415e+02  8.0000000000e+02  3.3000000000e-01 0. 9.
#pdf   11  -11  1.000000e+00  1.000000e+00  1.600000e+03  1.000000e+00  1.000000e+00
</event>
<event>
     5  9999  1.000000e+00  1.600000e+03  8.079897e-03  9.131846e-02
       11    -1     0     0     0     0  0.0000000000e+00  0.0000000000e+00  8.0000000000e+02  8.0000000000e+02  0.0000000000e+00 0. 9.
      -11    -1     0     0     0     0  0.0000000000e+00  0.0000000000e+00 -8.0000000000e+02  8.0000000000e+02  0.0000000000e+00 0. 9.
       23     2     1     2     0     0  0.0000000000e+00  0.0000000000e+00  0.0000000000e+00  1.6000000000e+03  1.6000000000e+03 0. 9.
        2     1     3     0   101     0 -5.9770060006e+02  4.7912568237e+02 -2.3063491559e+02  8.0000000000e+02  3.3000000000e-01 0. 9.
       -2     1     3     0     0   101  5.9770060006e+02 -4.7912568237e+02  2.3063491559e+02  8.0000000000e+02  3.3000000000e-01 0. 9.
#pdf   11  -11  1.000000e+00  1.000000e+00  1.600000e+03  1.000000e+00  1.000000e+00
</event>
<event>
     5  9999  1.000000e+00  1.600000e+03  8.079897e-03  9.131846e-02
       11    -1     0     0     0     0  0.0000000000e+00  0.0000000000e+00  8.0000000000e+02  8.0000000000e+02  0.0000000000e+00 0. 9.
      -11    -1     0     0     0     0  0.0000000000e+00  0.0000000000e+00 -8.0000000000e+02  8.0000000000e+02  0.0000000000e+00 0. 9.
       23     2     1     2     0     0  0.0000000000e+00  0.0000000000e+00  0.0000000000e+00  1.6000000000e+03  1.6000000000e+03 0. 9.
        2     1     3     0   101     0  1.6728316737e+02 -6.8268329644e+02  3.8204679003e+02  8.0000000000e+02  3.3000000000e-01 0. 9.
       -2     1     3     0     0   101 -1.6728316737e+02  6.8268329644e+02 -3.8204679003e+02  8.0000000000e+02  3.3000000000e-01 0. 9.
#pdf   11  -11  1.000000e+00  1.000000e+00  1.600000e+03  1.000000e+00  1.000000e+00
</event>
<event>
     5  9999  1.000000e+00  1.600000e+03  8.079897e-03  9.131846e-02
       11    -1     0     0     0     0  0.0000000000e+00  0.0000000000e+00  8.0000000000e+02  8.0000000000e+02  0.0000000000e+00 0. 9.
      -11    -1     0     0     0     0  0.0000000000e+00  0.0000000000e+00 -8.0000000000e+02  8.0000000000e+02  0.0000000000e+00 0. 9.
       23     2     1     2     0     0  0.0000000000e+00  0.0000000000e+00  0.0000000000e+00  1.6000000000e+03  1.6000000000e+03 0. 9.
        2     1     3     0   101     0  2.8944243154e+02  4.2009281342e+02  6.1623453168e+02  8.0000000000e+02  3.3000000000e-01 0. 9.
       -2     1     3     0     0   101 -2.8944243154e+02 -4.2009281342e+02 -6.1623453168e+02  8.0000000000e+02  3.3000000000e-01 0. 9.
#pdf   11  -11  1.000000e+00  1.000000e+00  1.600000e+03  1.000000e+00  1.000000e+00
</event>
<event>
     5  9999  1.000000e+00  1.600000e+03  8.079897e-03  9.131846e-02
       11    -1     0     0     0     0  0.0000000000e+00  0.0000000000e+00  8.0000000000e+02  8.0000000000e+02  0.0000000000e+00 0. 9.
      -11    -1     0     0     0     0  0.0000000000e+00  0.0000000000e+00 -8.0000000000e+02  8.0000000000e+02  0.0000000000e+00 0. 9.
       23     2     1     2     0     0  0.0000000000e+00  0.0000000000e+00  0.0000000000e+00  1.6000000000e+03  1.6000000000e+03 0. 9.
        2     1     3     0   101     0  5.9844013925e+02  2.2622870746e+02  4.8030184546e+02  8.0000000000e+02  3.3000000000e-01 0. 9.
       -2     1     3     0     0   101 -5.9844013925e+02 -2.2622870746e+02 -4.8030184546e+02  8.0000000000e+02  3.3000000000e-01 0. 9.
#pdf   11  -11  1.000000e+00  1.000000e+00  1.600000e+03  1.000000e+00  1.000000e+00
</event>
<event>
     5  9999  1.000000e+00  1.600000e+03  8.079897e-03  9.131846e-02
       11    -1     0     0     0     0  0.0000000000e+00  0.0000000000e+00  8.0000000000e+02  8.0000000000e+02  0.0000000000e+00 0. 9.
      -11    -1     0     0     0     0  0.0000000000e+00  0.0000000000e+00 -8.0000000000e+02  8.0000000000e+02  0.0000000000e+00 0. 9.
       23     2     1     2     0     0  0.0000000000e+00  0.0000000000e+00  0.0000000000e+00  1.6000000000e+03  1.6000000000e+03 0. 9.
        2     1     3     0   101     0 -7.6125605013e+01 -1.6617069105e+01  7.9619636797e+02  8.0000000000e+02  3.3000000000e-01 0. 9.
       -2     1     3     0     0   101  7.6125605013e+01  1.6617069105e+01 -7.9619636797e+02  8.0000000000e+02  3.3000000000e-01 0. 9.
#pdf   11  -11  1.000000e+00  1.000000e+00  1.600000e+03  1.000000e+00  1.000000e+00
</event>
<event>
     5  9999  1.000000e+00  1.600000e+03  8.079897e-03  9.131846e-02
       11    -1     0     0     0     0  0.0000000000e+00  0.0000000000e+00  8.0000000000e+02  8.0000000000e+02  0.0000000000e+00 0. 9.
      -11    -1     0     0     0     0  0.0000000000e+00  0.0000000000e+00 -8.0000000000e+02  8.0000000000e+02  0.0000000000e+00 0. 9.
       23     2     1     2     0     0  0.0000000000e+00  0.0000000000e+00  0.0000000000e+00  1.6000000000e+03  1.6000000000e+03 0. 9.
        2     1     3     0   101     0 -1.0108203100e+02  3.5512404666e+02  7.0969657290e+02  8.0000000000e+02  3.3000000000e-01 0. 9.
       -2     1     3     0     0   101  1.0108203100e+02 -3.5512404666e+02 -7.0969657290e+02  8.0000000000e+02  3.3000000000e-01 0. 9.
#pdf   11  -11  1.000000e+00  1.000000e+00  1.600000e+03  1.000000e+00  1.000000e+00
</event>
<event>
     5  9999  1.000000e+00  1.600000e+03  8.079897e-03  9.131846e-02
       11    -1     0     0     0     0  0.0000000000e+00  0.0000000000e+00  8.0000000000e+02  8.0000000000e+02  0.0000000000e+00 0. 9.
      -11    -1     0     0     0     0  0.0000000000e+00  0.0000000000e+00 -8.0000000000e+02  8.0000000000e+02  0.0000000000e+00 0. 9.
       23     2     1     2     0     0  0.0000000000e+00  0.0000000000e+00  0.0000000000e+00  1.6000000000e+03  1.6000000000e+03 0. 9.
        2     1     3     0   101     0  3.5124820636e+02 -6.8381085579e+02  2.2142109686e+02  8.0000000000e+02  3.3000000000e-01 0. 9.
       -2     1     3     0     0   101 -3.5124820636e+02  6.8381085579e+02 -2.2142109686e+02  8.0000000000e+02  3.3000000000e-01 0. 9.
#pdf   11  -11  1.000000e+00  1.000000e+00  1.600000e+03  1.000000e+00  1.000000e+00
</event>
<event>
     5  9999  1.000000e+00  1.600000e+03  8.079897e-03  9.131846e-02
       11    -1     0     0     0     0  0.0000000000e+00  0.0000000000e+00  8.0000000000e+02  8.0000000000e+02  0.0000000000e+00 0. 9.
      -11    -1     0     0     0     0  0.0000000000e+00  0.0000000000e+00 -8.0000000000e+02  8.0000000000e+02  0.0000000000e+00 0. 9.
       23     2     1     2     0     0  0.0000000000e+00  0.0000000000e+00  0.0000000000e+00  1.6000000000e+03  1.6000000000e+03 0. 9.
        2     1     3     0   101     0 -7.7925151379e+02  1.3664497109e+02 -1.1872287580e+02  8.0000000000e+02  3.3000000000e-01 0. 9.
       -2     1     3     0     0   101  7.7925151379e+02 -1.3664497109e+02  1.1872287580e+02  8.0000000000e+02  3.3000000000e-01 0. 9.
#pdf   11  -11  1.000000e+00  1.000000e+00  1.600000e+03  1.000000e+00  1.000000e+00
</event>
<event>
     5  9999  1.000000e+00  1.600000e+03  8.079897e-03  9.131846e-02
       11    -1     0     0     0     0  0.0000000000e+00  0.0000000000e+00  8.0000000000e+02  8.0000000000e+02  0.0000000000e+00 0. 9.
      -11    -1     0     0     0     0  0.0000000000e+00  0.0000000000e+00 -8.0000000000e+02  8.0000000000e+02  0.0000000000e+00 0. 9.
       23     2     1     2     0     0  0.0000000000e+00  0.0000000000e+00  0.0000000000e+00  1.6000000000e+03  1.6000000000e+03 0. 9.
        2     1     3     0   101     0 -4.9941759151e+02 -2.0277984005e+02  5.9115336154e+02  8.0000000000e+02  3.3000000000e-01 0. 9.
       -2     1     3     0     0   101  4.9941759151e+02  2.0277984005e+02 -5.9115336154e+02  8.0000000000e+02  3.3000000000e-01 0. 9.
#pdf   11  -11  1.000000e+00  1.000000e+00  1.600000e+03  1.000000e+00  1.000000e+00
</event>
<event>
     5  9999  1.000000e+00  1.600000e+03  8.079897e-03  9.131846e-02
       11    -1     0     0     0     0  0.0000000000e+00  0.0000000000e+00  8.0000000000e+02  8.0000000000e+02  0.0000000000e+00 0. 9.
      -11    -1     0     0     0     0  0.0000000000e+00  0.0000000000e+00 -8.0000000000e+02  8.0000000000e+02  0.0000000000e+00 0. 9.
       23     2     1     2     0     0  0.0000000000e+00  0.0000000000e+00  0.0000000000e+00  1.6000000000e+03  1.6000000000e+03 0. 9.
        2     1     3     0   101     0  4.0885803340e+02 -3.9421881674e+02  5.6340618043e+02  8.0000000000e+02  3.3000000000e-01 0. 9.
       -2     1     3     0     0   101 -4.0885803340e+02  3.9421881674e+02 -5.6340618043e+02  8.0000000000e+02  3.3000000000e-01 0. 9.
#pdf   11  -11  1.000000e+00  1.000000e+00  1.600000e+03  1.000000e+00  1.000000e+00
</event>
<event>
     5  9999  1.000000e+00  1.600000e+03  8.079897e-03  9.131846e-02
       11    -1     0     0     0     0  0.0000000000e+00  0.0000000000e+00  8.0000000000e+02  8.0000000000e+02  0.0000000000e+00 0. 9.
      -11    -1     0     0     0     0  0.0000000000e+00  0.0000000000e+00 -8.0000000000e+02  8.0000000000e+02  0.0000000000e+00 0. 9.
       23     2     1     2     0     0  0.0000000000e+00  0.0000000000e+00  0.0000000000e+00  1.6000000000e+03  1.6000000000e+03 0. 9.
        2     1     3     0   101     0 -3.8074802198e+02  3.4071574818e+02  6.1558396162e+02  8.0000000000e+02  3.3000000000e-01 0. 9.
       -2     1     3     0     0   101  3.8074802198e+02 -3.4071574818e+02 -6.1558396162e+02  8.0000000000e+02  3.3000000000e-01 0. 9.
#pdf   11  -11  1.000000e+00  1.000000e+00  1.600000e+03  1.000000e+00  1.000000e+00
</event>
</LesHouchesEvents>
