<LesHouchesEvents version="1.0">
<!--
  File written by Pythia8::LHAup on 07 Jun 2015 at 18:23:22
-->
<init>
  11  -11  1.000000e+02  1.000000e+02  0  0  0  0  3  1
  5.429636e+00  0.000000e+00  1.000000e+00   9999
</init>
<event>
     5  9999  1.000000e+00  2.000000e+02  7.887732e-03  1.158210e-01
       11    -1     0     0     0     0  0.0000000000e+00  0.0000000000e+00  1.0000000000e+02  1.0000000000e+02  0.0000000000e+00 0. 9.
      -11    -1     0     0     0     0  0.0000000000e+00  0.0000000000e+00 -1.0000000000e+02  1.0000000000e+02  0.0000000000e+00 0. 9.
       23     2     1     2     0     0  0.0000000000e+00  0.0000000000e+00  0.0000000000e+00  2.0000000000e+02  2.0000000000e+02 0. 9.
        2     1     3     0   101     0 -1.5952663089e+01 -8.3867428740e+01  5.2073582908e+01  1.0000000000e+02  3.3000000000e-01 0. 9.
       -2     1     3     0     0   101  1.5952663089e+01  8.3867428740e+01 -5.2073582908e+01  1.0000000000e+02  3.3000000000e-01 0. 9.
#pdf   11  -11  1.000000e+00  1.000000e+00  2.000000e+02  1.000000e+00  1.000000e+00
</event>
<event>
     5  9999  1.000000e+00  2.000000e+02  7.887732e-03  1.158210e-01
       11    -1     0     0     0     0  0.0000000000e+00  0.0000000000e+00  1.0000000000e+02  1.0000000000e+02  0.0000000000e+00 0. 9.
      -11    -1     0     0     0     0  0.0000000000e+00  0.0000000000e+00 -1.0000000000e+02  1.0000000000e+02  0.0000000000e+00 0. 9.
       23     2     1     2     0     0  0.0000000000e+00  0.0000000000e+00  0.0000000000e+00  2.0000000000e+02  2.0000000000e+02 0. 9.
        2     1     3     0   101     0  4.5659038849e+01  6.9810590774e+00  8.8692773581e+01  1.0000000000e+02  3.3000000000e-01 0. 9.
       -2     1     3     0     0   101 -4.5659038849e+01 -6.9810590774e+00 -8.8692773581e+01  1.0000000000e+02  3.3000000000e-01 0. 9.
#pdf   11  -11  1.000000e+00  1.000000e+00  2.000000e+02  1.000000e+00  1.000000e+00
</event>
<event>
     5  9999  1.000000e+00  2.000000e+02  7.887732e-03  1.158210e-01
       11    -1     0     0     0     0  0.0000000000e+00  0.0000000000e+00  1.0000000000e+02  1.0000000000e+02  0.0000000000e+00 0. 9.
      -11    -1     0     0     0     0  0.0000000000e+00  0.0000000000e+00 -1.0000000000e+02  1.0000000000e+02  0.0000000000e+00 0. 9.
       23     2     1     2     0     0  0.0000000000e+00  0.0000000000e+00  0.0000000000e+00  2.0000000000e+02  2.0000000000e+02 0. 9.
        2     1     3     0   101     0 -9.2801140554e+01  3.2696764161e+01  1.7853879840e+01  1.0000000000e+02  3.3000000000e-01 0. 9.
       -2     1     3     0     0   101  9.2801140554e+01 -3.2696764161e+01 -1.7853879840e+01  1.0000000000e+02  3.3000000000e-01 0. 9.
#pdf   11  -11  1.000000e+00  1.000000e+00  2.000000e+02  1.000000e+00  1.000000e+00
</event>
<event>
     5  9999  1.000000e+00  2.000000e+02  7.887732e-03  1.158210e-01
       11    -1     0     0     0     0  0.0000000000e+00  0.0000000000e+00  1.0000000000e+02  1.0000000000e+02  0.0000000000e+00 0. 9.
      -11    -1     0     0     0     0  0.0000000000e+00  0.0000000000e+00 -1.0000000000e+02  1.0000000000e+02  0.0000000000e+00 0. 9.
       23     2     1     2     0     0  0.0000000000e+00  0.0000000000e+00  0.0000000000e+00  2.0000000000e+02  2.0000000000e+02 0. 9.
        2     1     3     0   101     0  4.3088616137e+01  7.2335169447e+01  5.3952622926e+01  1.0000000000e+02  3.3000000000e-01 0. 9.
       -2     1     3     0     0   101 -4.3088616137e+01 -7.2335169447e+01 -5.3952622926e+01  1.0000000000e+02  3.3000000000e-01 0. 9.
#pdf   11  -11  1.000000e+00  1.000000e+00  2.000000e+02  1.000000e+00  1.000000e+00
</event>
<event>
     5  9999  1.000000e+00  2.000000e+02  7.887732e-03  1.158210e-01
       11    -1     0     0     0     0  0.0000000000e+00  0.0000000000e+00  1.0000000000e+02  1.0000000000e+02  0.0000000000e+00 0. 9.
      -11    -1     0     0     0     0  0.0000000000e+00  0.0000000000e+00 -1.0000000000e+02  1.0000000000e+02  0.0000000000e+00 0. 9.
       23     2     1     2     0     0  0.0000000000e+00  0.0000000000e+00  0.0000000000e+00  2.0000000000e+02  2.0000000000e+02 0. 9.
        2     1     3     0   101     0 -4.9696766619e+00  4.7575811061e+00  9.9762512177e+01  1.0000000000e+02  3.3000000000e-01 0. 9.
       -2     1     3     0     0   101  4.9696766619e+00 -4.7575811061e+00 -9.9762512177e+01  1.0000000000e+02  3.3000000000e-01 0. 9.
#pdf   11  -11  1.000000e+00  1.000000e+00  2.000000e+02  1.000000e+00  1.000000e+00
</event>
<event>
     5  9999  1.000000e+00  2.000000e+02  7.887732e-03  1.158210e-01
       11    -1     0     0     0     0  0.0000000000e+00  0.0000000000e+00  1.0000000000e+02  1.0000000000e+02  0.0000000000e+00 0. 9.
      -11    -1     0     0     0     0  0.0000000000e+00  0.0000000000e+00 -1.0000000000e+02  1.0000000000e+02  0.0000000000e+00 0. 9.
       23     2     1     2     0     0  0.0000000000e+00  0.0000000000e+00  0.0000000000e+00  2.0000000000e+02  2.0000000000e+02 0. 9.
        2     1     3     0   101     0  9.4900640772e+01  2.3229169398e+01 -2.1311151308e+01  1.0000000000e+02  3.3000000000e-01 0. 9.
       -2     1     3     0     0   101 -9.4900640772e+01 -2.3229169398e+01  2.1311151308e+01  1.0000000000e+02  3.3000000000e-01 0. 9.
#pdf   11  -11  1.000000e+00  1.000000e+00  2.000000e+02  1.000000e+00  1.000000e+00
</event>
<event>
     5  9999  1.000000e+00  2.000000e+02  7.887732e-03  1.158210e-01
       11    -1     0     0     0     0  0.0000000000e+00  0.0000000000e+00  1.0000000000e+02  1.0000000000e+02  0.0000000000e+00 0. 9.
      -11    -1     0     0     0     0  0.0000000000e+00  0.0000000000e+00 -1.0000000000e+02  1.0000000000e+02  0.0000000000e+00 0. 9.
       23     2     1     2     0     0  0.0000000000e+00  0.0000000000e+00  0.0000000000e+00  2.0000000000e+02  2.0000000000e+02 0. 9.
        2     1     3     0   101     0 -5.1331390762e+01 -8.2536088513e+01  2.3511135985e+01  1.0000000000e+02  3.3000000000e-01 0. 9.
       -2     1     3     0     0   101  5.1331390762e+01  8.2536088513e+01 -2.3511135985e+01  1.0000000000e+02  3.3000000000e-01 0. 9.
#pdf   11  -11  1.000000e+00  1.000000e+00  2.000000e+02  1.000000e+00  1.000000e+00
</event>
<event>
     5  9999  1.000000e+00  2.000000e+02  7.887732e-03  1.158210e-01
       11    -1     0     0     0     0  0.0000000000e+00  0.0000000000e+00  1.0000000000e+02  1.0000000000e+02  0.0000000000e+00 0. 9.
      -11    -1     0     0     0     0  0.0000000000e+00  0.0000000000e+00 -1.0000000000e+02  1.0000000000e+02  0.0000000000e+00 0. 9.
       23     2     1     2     0     0  0.0000000000e+00  0.0000000000e+00  0.0000000000e+00  2.0000000000e+02  2.0000000000e+02 0. 9.
        2     1     3     0   101     0  3.7065562834e+01  3.9361643953e+01  8.4123101091e+01  1.0000000000e+02  3.3000000000e-01 0. 9.
       -2     1     3     0     0   101 -3.7065562834e+01 -3.9361643953e+01 -8.4123101091e+01  1.0000000000e+02  3.3000000000e-01 0. 9.
#pdf   11  -11  1.000000e+00  1.000000e+00  2.000000e+02  1.000000e+00  1.000000e+00
</event>
<event>
     5  9999  1.000000e+00  2.000000e+02  7.887732e-03  1.158210e-01
       11    -1     0     0     0     0  0.0000000000e+00  0.0000000000e+00  1.0000000000e+02  1.0000000000e+02  0.0000000000e+00 0. 9.
      -11    -1     0     0     0     0  0.0000000000e+00  0.0000000000e+00 -1.0000000000e+02  1.0000000000e+02  0.0000000000e+00 0. 9.
       23     2     1     2     0     0  0.0000000000e+00  0.0000000000e+00  0.0000000000e+00  2.0000000000e+02  2.0000000000e+02 0. 9.
        2     1     3     0   101     0  2.7634975693e+01 -3.7958257178e+01  8.8291392165e+01  1.0000000000e+02  3.3000000000e-01 0. 9.
       -2     1     3     0     0   101 -2.7634975693e+01  3.7958257178e+01 -8.8291392165e+01  1.0000000000e+02  3.3000000000e-01 0. 9.
#pdf   11  -11  1.000000e+00  1.000000e+00  2.000000e+02  1.000000e+00  1.000000e+00
</event>
<event>
     5  9999  1.000000e+00  2.000000e+02  7.887732e-03  1.158210e-01
       11    -1     0     0     0     0  0.0000000000e+00  0.0000000000e+00  1.0000000000e+02  1.0000000000e+02  0.0000000000e+00 0. 9.
      -11    -1     0     0     0     0  0.0000000000e+00  0.0000000000e+00 -1.0000000000e+02  1.0000000000e+02  0.0000000000e+00 0. 9.
       23     2     1     2     0     0  0.0000000000e+00  0.0000000000e+00  0.0000000000e+00  2.0000000000e+02  2.0000000000e+02 0. 9.
        2     1     3     0   101     0  2.5990675104e+01 -4.8342495994e+01  8.3590543656e+01  1.0000000000e+02  3.3000000000e-01 0. 9.
       -2     1     3     0     0   101 -2.5990675104e+01  4.8342495994e+01 -8.3590543656e+01  1.0000000000e+02  3.3000000000e-01 0. 9.
#pdf   11  -11  1.000000e+00  1.000000e+00  2.000000e+02  1.000000e+00  1.000000e+00
</event>
<event>
     5  9999  1.000000e+00  2.000000e+02  7.887732e-03  1.158210e-01
       11    -1     0     0     0     0  0.0000000000e+00  0.0000000000e+00  1.0000000000e+02  1.0000000000e+02  0.0000000000e+00 0. 9.
      -11    -1     0     0     0     0  0.0000000000e+00  0.0000000000e+00 -1.0000000000e+02  1.0000000000e+02  0.0000000000e+00 0. 9.
       23     2     1     2     0     0  0.0000000000e+00  0.0000000000e+00  0.0000000000e+00  2.0000000000e+02  2.0000000000e+02 0. 9.
        2     1     3     0   101     0  3.8205449025e+01  4.2732970623e+01  8.1939782685e+01  1.0000000000e+02  3.3000000000e-01 0. 9.
       -2     1     3     0     0   101 -3.8205449025e+01 -4.2732970623e+01 -8.1939782685e+01  1.0000000000e+02  3.3000000000e-01 0. 9.
#pdf   11  -11  1.000000e+00  1.000000e+00  2.000000e+02  1.000000e+00  1.000000e+00
</event>
<event>
     5  9999  1.000000e+00  2.000000e+02  7.887732e-03  1.158210e-01
       11    -1     0     0     0     0  0.0000000000e+00  0.0000000000e+00  1.0000000000e+02  1.0000000000e+02  0.0000000000e+00 0. 9.
      -11    -1     0     0     0     0  0.0000000000e+00  0.0000000000e+00 -1.0000000000e+02  1.0000000000e+02  0.0000000000e+00 0. 9.
       23     2     1     2     0     0  0.0000000000e+00  0.0000000000e+00  0.0000000000e+00  2.0000000000e+02  2.0000000000e+02 0. 9.
        2     1     3     0   101     0 -4.1793330257e+01  1.9719940951e+01  8.8681072247e+01  1.0000000000e+02  3.3000000000e-01 0. 9.
       -2     1     3     0     0   101  4.1793330257e+01 -1.9719940951e+01 -8.8681072247e+01  1.0000000000e+02  3.3000000000e-01 0. 9.
#pdf   11  -11  1.000000e+00  1.000000e+00  2.000000e+02  1.000000e+00  1.000000e+00
</event>
<event>
     5  9999  1.000000e+00  2.000000e+02  7.887732e-03  1.158210e-01
       11    -1     0     0     0     0  0.0000000000e+00  0.0000000000e+00  1.0000000000e+02  1.0000000000e+02  0.0000000000e+00 0. 9.
      -11    -1     0     0     0     0  0.0000000000e+00  0.0000000000e+00 -1.0000000000e+02  1.0000000000e+02  0.0000000000e+00 0. 9.
       23     2     1     2     0     0  0.0000000000e+00  0.0000000000e+00  0.0000000000e+00  2.0000000000e+02  2.0000000000e+02 0. 9.
        2     1     3     0   101     0 -9.1284572091e+01  8.5129143742e+00  3.9931795438e+01  1.0000000000e+02  3.3000000000e-01 0. 9.
       -2     1     3     0     0   101  9.1284572091e+01 -8.5129143742e+00 -3.9931795438e+01  1.0000000000e+02  3.3000000000e-01 0. 9.
#pdf   11  -11  1.000000e+00  1.000000e+00  2.000000e+02  1.000000e+00  1.000000e+00
</event>
<event>
     5  9999  1.000000e+00  2.000000e+02  7.887732e-03  1.158210e-01
       11    -1     0     0     0     0  0.0000000000e+00  0.0000000000e+00  1.0000000000e+02  1.0000000000e+02  0.0000000000e+00 0. 9.
      -11    -1     0     0     0     0  0.0000000000e+00  0.0000000000e+00 -1.0000000000e+02  1.0000000000e+02  0.0000000000e+00 0. 9.
       23     2     1     2     0     0  0.0000000000e+00  0.0000000000e+00  0.0000000000e+00  2.0000000000e+02  2.0000000000e+02 0. 9.
        2     1     3     0   101     0 -5.4528720557e+01 -4.4399766717e+01  7.1099721870e+01  1.0000000000e+02  3.3000000000e-01 0. 9.
       -2     1     3     0     0   101  5.4528720557e+01  4.4399766717e+01 -7.1099721870e+01  1.0000000000e+02  3.3000000000e-01 0. 9.
#pdf   11  -11  1.000000e+00  1.000000e+00  2.000000e+02  1.000000e+00  1.000000e+00
</event>
<event>
     5  9999  1.000000e+00  2.000000e+02  7.887732e-03  1.158210e-01
       11    -1     0     0     0     0  0.0000000000e+00  0.0000000000e+00  1.0000000000e+02  1.0000000000e+02  0.0000000000e+00 0. 9.
      -11    -1     0     0     0     0  0.0000000000e+00  0.0000000000e+00 -1.0000000000e+02  1.0000000000e+02  0.0000000000e+00 0. 9.
       23     2     1     2     0     0  0.0000000000e+00  0.0000000000e+00  0.0000000000e+00  2.0000000000e+02  2.0000000000e+02 0. 9.
        2     1     3     0   101     0  7.9697984950e+01  2.3577562805e+01  5.5607740712e+01  1.0000000000e+02  3.3000000000e-01 0. 9.
       -2     1     3     0     0   101 -7.9697984950e+01 -2.3577562805e+01 -5.5607740712e+01  1.0000000000e+02  3.3000000000e-01 0. 9.
#pdf   11  -11  1.000000e+00  1.000000e+00  2.000000e+02  1.000000e+00  1.000000e+00
</event>
<event>
     5  9999  1.000000e+00  2.000000e+02  7.887732e-03  1.158210e-01
       11    -1     0     0     0     0  0.0000000000e+00  0.0000000000e+00  1.0000000000e+02  1.0000000000e+02  0.0000000000e+00 0. 9.
      -11    -1     0     0     0     0  0.0000000000e+00  0.0000000000e+00 -1.0000000000e+02  1.0000000000e+02  0.0000000000e+00 0. 9.
       23     2     1     2     0     0  0.0000000000e+00  0.0000000000e+00  0.0000000000e+00  2.0000000000e+02  2.0000000000e+02 0. 9.
        2     1     3     0   101     0 -3.1014198597e+01 -4.5396716569e+01  8.3529328443e+01  1.0000000000e+02  3.3000000000e-01 0. 9.
       -2     1     3     0     0   101  3.1014198597e+01  4.5396716569e+01 -8.3529328443e+01  1.0000000000e+02  3.3000000000e-01 0. 9.
#pdf   11  -11  1.000000e+00  1.000000e+00  2.000000e+02  1.000000e+00  1.000000e+00
</event>
<event>
     5  9999  1.000000e+00  2.000000e+02  7.887732e-03  1.158210e-01
       11    -1     0     0     0     0  0.0000000000e+00  0.0000000000e+00  1.0000000000e+02  1.0000000000e+02  0.0000000000e+00 0. 9.
      -11    -1     0     0     0     0  0.0000000000e+00  0.0000000000e+00 -1.0000000000e+02  1.0000000000e+02  0.0000000000e+00 0. 9.
       23     2     1     2     0     0  0.0000000000e+00  0.0000000000e+00  0.0000000000e+00  2.0000000000e+02  2.0000000000e+02 0. 9.
        2     1     3     0   101     0  1.6796428673e+01 -2.9556468421e+01  9.4043533846e+01  1.0000000000e+02  3.3000000000e-01 0. 9.
       -2     1     3     0     0   101 -1.6796428673e+01  2.9556468421e+01 -9.4043533846e+01  1.0000000000e+02  3.3000000000e-01 0. 9.
#pdf   11  -11  1.000000e+00  1.000000e+00  2.000000e+02  1.000000e+00  1.000000e+00
</event>
<event>
     5  9999  1.000000e+00  2.000000e+02  7.887732e-03  1.158210e-01
       11    -1     0     0     0     0  0.0000000000e+00  0.0000000000e+00  1.0000000000e+02  1.0000000000e+02  0.0000000000e+00 0. 9.
      -11    -1     0     0     0     0  0.0000000000e+00  0.0000000000e+00 -1.0000000000e+02  1.0000000000e+02  0.0000000000e+00 0. 9.
       23     2     1     2     0     0  0.0000000000e+00  0.0000000000e+00  0.0000000000e+00  2.0000000000e+02  2.0000000000e+02 0. 9.
        2     1     3     0   101     0 -5.7593650045e+01  7.5391421167e+01  3.1606900970e+01  1.0000000000e+02  3.3000000000e-01 0. 9.
       -2     1     3     0     0   101  5.7593650045e+01 -7.5391421167e+01 -3.1606900970e+01  1.0000000000e+02  3.3000000000e-01 0. 9.
#pdf   11  -11  1.000000e+00  1.000000e+00  2.000000e+02  1.000000e+00  1.000000e+00
</event>
<event>
     5  9999  1.000000e+00  2.000000e+02  7.887732e-03  1.158210e-01
       11    -1     0     0     0     0  0.0000000000e+00  0.0000000000e+00  1.0000000000e+02  1.0000000000e+02  0.0000000000e+00 0. 9.
      -11    -1     0     0     0     0  0.0000000000e+00  0.0000000000e+00 -1.0000000000e+02  1.0000000000e+02  0.0000000000e+00 0. 9.
       23     2     1     2     0     0  0.0000000000e+00  0.0000000000e+00  0.0000000000e+00  2.0000000000e+02  2.0000000000e+02 0. 9.
        2     1     3     0   101     0  9.3747274446e+01  2.8508339665e+01  1.9965325030e+01  1.0000000000e+02  3.3000000000e-01 0. 9.
       -2     1     3     0     0   101 -9.3747274446e+01 -2.8508339665e+01 -1.9965325030e+01  1.0000000000e+02  3.3000000000e-01 0. 9.
#pdf   11  -11  1.000000e+00  1.000000e+00  2.000000e+02  1.000000e+00  1.000000e+00
</event>
<event>
     5  9999  1.000000e+00  2.000000e+02  7.887732e-03  1.158210e-01
       11    -1     0     0     0     0  0.0000000000e+00  0.0000000000e+00  1.0000000000e+02  1.0000000000e+02  0.0000000000e+00 0. 9.
      -11    -1     0     0     0     0  0.0000000000e+00  0.0000000000e+00 -1.0000000000e+02  1.0000000000e+02  0.0000000000e+00 0. 9.
       23     2     1     2     0     0  0.0000000000e+00  0.0000000000e+00  0.0000000000e+00  2.0000000000e+02  2.0000000000e+02 0. 9.
        2     1     3     0   101     0  9.4407567932e+00 -7.0431972195e+01  7.0356950644e+01  1.0000000000e+02  3.3000000000e-01 0. 9.
       -2     1     3     0     0   101 -9.4407567932e+00  7.0431972195e+01 -7.0356950644e+01  1.0000000000e+02  3.3000000000e-01 0. 9.
#pdf   11  -11  1.000000e+00  1.000000e+00  2.000000e+02  1.000000e+00  1.000000e+00
</event>
<event>
     5  9999  1.000000e+00  2.000000e+02  7.887732e-03  1.158210e-01
       11    -1     0     0     0     0  0.0000000000e+00  0.0000000000e+00  1.0000000000e+02  1.0000000000e+02  0.0000000000e+00 0. 9.
      -11    -1     0     0     0     0  0.0000000000e+00  0.0000000000e+00 -1.0000000000e+02  1.0000000000e+02  0.0000000000e+00 0. 9.
       23     2     1     2     0     0  0.0000000000e+00  0.0000000000e+00  0.0000000000e+00  2.0000000000e+02  2.0000000000e+02 0. 9.
        2     1     3     0   101     0 -8.4422586006e+00 -4.4339651322e+01  8.9233484132e+01  1.0000000000e+02  3.3000000000e-01 0. 9.
       -2     1     3     0     0   101  8.4422586006e+00  4.4339651322e+01 -8.9233484132e+01  1.0000000000e+02  3.3000000000e-01 0. 9.
#pdf   11  -11  1.000000e+00  1.000000e+00  2.000000e+02  1.000000e+00  1.000000e+00
</event>
<event>
     5  9999  1.000000e+00  2.000000e+02  7.887732e-03  1.158210e-01
       11    -1     0     0     0     0  0.0000000000e+00  0.0000000000e+00  1.0000000000e+02  1.0000000000e+02  0.0000000000e+00 0. 9.
      -11    -1     0     0     0     0  0.0000000000e+00  0.0000000000e+00 -1.0000000000e+02  1.0000000000e+02  0.0000000000e+00 0. 9.
       23     2     1     2     0     0  0.0000000000e+00  0.0000000000e+00  0.0000000000e+00  2.0000000000e+02  2.0000000000e+02 0. 9.
        2     1     3     0   101     0  5.7573392520e+01 -2.4915743574e+01  7.7874265941e+01  1.0000000000e+02  3.3000000000e-01 0. 9.
       -2     1     3     0     0   101 -5.7573392520e+01  2.4915743574e+01 -7.7874265941e+01  1.0000000000e+02  3.3000000000e-01 0. 9.
#pdf   11  -11  1.000000e+00  1.000000e+00  2.000000e+02  1.000000e+00  1.000000e+00
</event>
<event>
     5  9999  1.000000e+00  2.000000e+02  7.887732e-03  1.158210e-01
       11    -1     0     0     0     0  0.0000000000e+00  0.0000000000e+00  1.0000000000e+02  1.0000000000e+02  0.0000000000e+00 0. 9.
      -11    -1     0     0     0     0  0.0000000000e+00  0.0000000000e+00 -1.0000000000e+02  1.0000000000e+02  0.0000000000e+00 0. 9.
       23     2     1     2     0     0  0.0000000000e+00  0.0000000000e+00  0.0000000000e+00  2.0000000000e+02  2.0000000000e+02 0. 9.
        2     1     3     0   101     0 -4.0565874464e+01 -6.2482174563e+01  6.6710409914e+01  1.0000000000e+02  3.3000000000e-01 0. 9.
       -2     1     3     0     0   101  4.0565874464e+01  6.2482174563e+01 -6.6710409914e+01  1.0000000000e+02  3.3000000000e-01 0. 9.
#pdf   11  -11  1.000000e+00  1.000000e+00  2.000000e+02  1.000000e+00  1.000000e+00
</event>
<event>
     5  9999  1.000000e+00  2.000000e+02  7.887732e-03  1.158210e-01
       11    -1     0     0     0     0  0.0000000000e+00  0.0000000000e+00  1.0000000000e+02  1.0000000000e+02  0.0000000000e+00 0. 9.
      -11    -1     0     0     0     0  0.0000000000e+00  0.0000000000e+00 -1.0000000000e+02  1.0000000000e+02  0.0000000000e+00 0. 9.
       23     2     1     2     0     0  0.0000000000e+00  0.0000000000e+00  0.0000000000e+00  2.0000000000e+02  2.0000000000e+02 0. 9.
        2     1     3     0   101     0 -7.8355155536e+01 -3.4047293234e+01  5.1972517009e+01  1.0000000000e+02  3.3000000000e-01 0. 9.
       -2     1     3     0     0   101  7.8355155536e+01  3.4047293234e+01 -5.1972517009e+01  1.0000000000e+02  3.3000000000e-01 0. 9.
#pdf   11  -11  1.000000e+00  1.000000e+00  2.000000e+02  1.000000e+00  1.000000e+00
</event>
<event>
     5  9999  1.000000e+00  2.000000e+02  7.887732e-03  1.158210e-01
       11    -1     0     0     0     0  0.0000000000e+00  0.0000000000e+00  1.0000000000e+02  1.0000000000e+02  0.0000000000e+00 0. 9.
      -11    -1     0     0     0     0  0.0000000000e+00  0.0000000000e+00 -1.0000000000e+02  1.0000000000e+02  0.0000000000e+00 0. 9.
       23     2     1     2     0     0  0.0000000000e+00  0.0000000000e+00  0.0000000000e+00  2.0000000000e+02  2.0000000000e+02 0. 9.
        2     1     3     0   101     0  7.1046917263e+01 -6.9730424740e+01 -9.4812716981e+00  1.0000000000e+02  3.3000000000e-01 0. 9.
       -2     1     3     0     0   101 -7.1046917263e+01  6.9730424740e+01  9.4812716981e+00  1.0000000000e+02  3.3000000000e-01 0. 9.
#pdf   11  -11  1.000000e+00  1.000000e+00  2.000000e+02  1.000000e+00  1.000000e+00
</event>
<event>
     5  9999  1.000000e+00  2.000000e+02  7.887732e-03  1.158210e-01
       11    -1     0     0     0     0  0.0000000000e+00  0.0000000000e+00  1.0000000000e+02  1.0000000000e+02  0.0000000000e+00 0. 9.
      -11    -1     0     0     0     0  0.0000000000e+00  0.0000000000e+00 -1.0000000000e+02  1.0000000000e+02  0.0000000000e+00 0. 9.
       23     2     1     2     0     0  0.0000000000e+00  0.0000000000e+00  0.0000000000e+00  2.0000000000e+02  2.0000000000e+02 0. 9.
        2     1     3     0   101     0  4.7377115787e+01 -8.7971987822e+01 -4.0285677863e+00  1.0000000000e+02  3.3000000000e-01 0. 9.
       -2     1     3     0     0   101 -4.7377115787e+01  8.7971987822e+01  4.0285677863e+00  1.0000000000e+02  3.3000000000e-01 0. 9.
#pdf   11  -11  1.000000e+00  1.000000e+00  2.000000e+02  1.000000e+00  1.000000e+00
</event>
<event>
     5  9999  1.000000e+00  2.000000e+02  7.887732e-03  1.158210e-01
       11    -1     0     0     0     0  0.0000000000e+00  0.0000000000e+00  1.0000000000e+02  1.0000000000e+02  0.0000000000e+00 0. 9.
      -11    -1     0     0     0     0  0.0000000000e+00  0.0000000000e+00 -1.0000000000e+02  1.0000000000e+02  0.0000000000e+00 0. 9.
       23     2     1     2     0     0  0.0000000000e+00  0.0000000000e+00  0.0000000000e+00  2.0000000000e+02  2.0000000000e+02 0. 9.
        2     1     3     0   101     0 -1.6526598005e+01 -2.9066833728e+01  9.4243736319e+01  1.0000000000e+02  3.3000000000e-01 0. 9.
       -2     1     3     0     0   101  1.6526598005e+01  2.9066833728e+01 -9.4243736319e+01  1.0000000000e+02  3.3000000000e-01 0. 9.
#pdf   11  -11  1.000000e+00  1.000000e+00  2.000000e+02  1.000000e+00  1.000000e+00
</event>
<event>
     5  9999  1.000000e+00  2.000000e+02  7.887732e-03  1.158210e-01
       11    -1     0     0     0     0  0.0000000000e+00  0.0000000000e+00  1.0000000000e+02  1.0000000000e+02  0.0000000000e+00 0. 9.
      -11    -1     0     0     0     0  0.0000000000e+00  0.0000000000e+00 -1.0000000000e+02  1.0000000000e+02  0.0000000000e+00 0. 9.
       23     2     1     2     0     0  0.0000000000e+00  0.0000000000e+00  0.0000000000e+00  2.0000000000e+02  2.0000000000e+02 0. 9.
        2     1     3     0   101     0  2.4869174380e+00 -4.4035804661e+00  9.9871491532e+01  1.0000000000e+02  3.3000000000e-01 0. 9.
       -2     1     3     0     0   101 -2.4869174380e+00  4.4035804661e+00 -9.9871491532e+01  1.0000000000e+02  3.3000000000e-01 0. 9.
#pdf   11  -11  1.000000e+00  1.000000e+00  2.000000e+02  1.000000e+00  1.000000e+00
</event>
<event>
     5  9999  1.000000e+00  2.000000e+02  7.887732e-03  1.158210e-01
       11    -1     0     0     0     0  0.0000000000e+00  0.0000000000e+00  1.0000000000e+02  1.0000000000e+02  0.0000000000e+00 0. 9.
      -11    -1     0     0     0     0  0.0000000000e+00  0.0000000000e+00 -1.0000000000e+02  1.0000000000e+02  0.0000000000e+00 0. 9.
       23     2     1     2     0     0  0.0000000000e+00  0.0000000000e+00  0.0000000000e+00  2.0000000000e+02  2.0000000000e+02 0. 9.
        2     1     3     0   101     0  3.9091195087e+01 -5.0516885294e+01  7.6940326662e+01  1.0000000000e+02  3.3000000000e-01 0. 9.
       -2     1     3     0     0   101 -3.9091195087e+01  5.0516885294e+01 -7.6940326662e+01  1.0000000000e+02  3.3000000000e-01 0. 9.
#pdf   11  -11  1.000000e+00  1.000000e+00  2.000000e+02  1.000000e+00  1.000000e+00
</event>
<event>
     5  9999  1.000000e+00  2.000000e+02  7.887732e-03  1.158210e-01
       11    -1     0     0     0     0  0.0000000000e+00  0.0000000000e+00  1.0000000000e+02  1.0000000000e+02  0.0000000000e+00 0. 9.
      -11    -1     0     0     0     0  0.0000000000e+00  0.0000000000e+00 -1.0000000000e+02  1.0000000000e+02  0.0000000000e+00 0. 9.
       23     2     1     2     0     0  0.0000000000e+00  0.0000000000e+00  0.0000000000e+00  2.0000000000e+02  2.0000000000e+02 0. 9.
        2     1     3     0   101     0 -3.3576535389e+01  9.2634876494e+01  1.7067132979e+01  1.0000000000e+02  3.3000000000e-01 0. 9.
       -2     1     3     0     0   101  3.3576535389e+01 -9.2634876494e+01 -1.7067132979e+01  1.0000000000e+02  3.3000000000e-01 0. 9.
#pdf   11  -11  1.000000e+00  1.000000e+00  2.000000e+02  1.000000e+00  1.000000e+00
</event>
<event>
     5  9999  1.000000e+00  2.000000e+02  7.887732e-03  1.158210e-01
       11    -1     0     0     0     0  0.0000000000e+00  0.0000000000e+00  1.0000000000e+02  1.0000000000e+02  0.0000000000e+00 0. 9.
      -11    -1     0     0     0     0  0.0000000000e+00  0.0000000000e+00 -1.0000000000e+02  1.0000000000e+02  0.0000000000e+00 0. 9.
       23     2     1     2     0     0  0.0000000000e+00  0.0000000000e+00  0.0000000000e+00  2.0000000000e+02  2.0000000000e+02 0. 9.
        2     1     3     0   101     0  8.0422050878e+01 -3.4022644212e-01  5.9431212999e+01  1.0000000000e+02  3.3000000000e-01 0. 9.
       -2     1     3     0     0   101 -8.0422050878e+01  3.4022644212e-01 -5.9431212999e+01  1.0000000000e+02  3.3000000000e-01 0. 9.
#pdf   11  -11  1.000000e+00  1.000000e+00  2.000000e+02  1.000000e+00  1.000000e+00
</event>
<event>
     5  9999  1.000000e+00  2.000000e+02  7.887732e-03  1.158210e-01
       11    -1     0     0     0     0  0.0000000000e+00  0.0000000000e+00  1.0000000000e+02  1.0000000000e+02  0.0000000000e+00 0. 9.
      -11    -1     0     0     0     0  0.0000000000e+00  0.0000000000e+00 -1.0000000000e+02  1.0000000000e+02  0.0000000000e+00 0. 9.
       23     2     1     2     0     0  0.0000000000e+00  0.0000000000e+00  0.0000000000e+00  2.0000000000e+02  2.0000000000e+02 0. 9.
        2     1     3     0   101     0 -3.6477126239e+01  5.4010588915e+01  7.5843039538e+01  1.0000000000e+02  3.3000000000e-01 0. 9.
       -2     1     3     0     0   101  3.6477126239e+01 -5.4010588915e+01 -7.5843039538e+01  1.0000000000e+02  3.3000000000e-01 0. 9.
#pdf   11  -11  1.000000e+00  1.000000e+00  2.000000e+02  1.000000e+00  1.000000e+00
</event>
<event>
     5  9999  1.000000e+00  2.000000e+02  7.887732e-03  1.158210e-01
       11    -1     0     0     0     0  0.0000000000e+00  0.0000000000e+00  1.0000000000e+02  1.0000000000e+02  0.0000000000e+00 0. 9.
      -11    -1     0     0     0     0  0.0000000000e+00  0.0000000000e+00 -1.0000000000e+02  1.0000000000e+02  0.0000000000e+00 0. 9.
       23     2     1     2     0     0  0.0000000000e+00  0.0000000000e+00  0.0000000000e+00  2.0000000000e+02  2.0000000000e+02 0. 9.
        2     1     3     0   101     0 -1.5312447944e+01 -3.3138619414e+01  9.3098077001e+01  1.0000000000e+02  3.3000000000e-01 0. 9.
       -2     1     3     0     0   101  1.5312447944e+01  3.3138619414e+01 -9.3098077001e+01  1.0000000000e+02  3.3000000000e-01 0. 9.
#pdf   11  -11  1.000000e+00  1.000000e+00  2.000000e+02  1.000000e+00  1.000000e+00
</event>
<event>
     5  9999  1.000000e+00  2.000000e+02  7.887732e-03  1.158210e-01
       11    -1     0     0     0     0  0.0000000000e+00  0.0000000000e+00  1.0000000000e+02  1.0000000000e+02  0.0000000000e+00 0. 9.
      -11    -1     0     0     0     0  0.0000000000e+00  0.0000000000e+00 -1.0000000000e+02  1.0000000000e+02  0.0000000000e+00 0. 9.
       23     2     1     2     0     0  0.0000000000e+00  0.0000000000e+00  0.0000000000e+00  2.0000000000e+02  2.0000000000e+02 0. 9.
        2     1     3     0   101     0 -9.6376894259e+01 -2.1785055573e+01  1.5388200242e+01  1.0000000000e+02  3.3000000000e-01 0. 9.
       -2     1     3     0     0   101  9.6376894259e+01  2.1785055573e+01 -1.5388200242e+01  1.0000000000e+02  3.3000000000e-01 0. 9.
#pdf   11  -11  1.000000e+00  1.000000e+00  2.000000e+02  1.000000e+00  1.000000e+00
</event>
<event>
     5  9999  1.000000e+00  2.000000e+02  7.887732e-03  1.158210e-01
       11    -1     0     0     0     0  0.0000000000e+00  0.0000000000e+00  1.0000000000e+02  1.0000000000e+02  0.0000000000e+00 0. 9.
      -11    -1     0     0     0     0  0.0000000000e+00  0.0000000000e+00 -1.0000000000e+02  1.0000000000e+02  0.0000000000e+00 0. 9.
       23     2     1     2     0     0  0.0000000000e+00  0.0000000000e+00  0.0000000000e+00  2.0000000000e+02  2.0000000000e+02 0. 9.
        2     1     3     0   101     0  5.0809489257e+00 -9.8124845416e+00  9.9387072626e+01  1.0000000000e+02  3.3000000000e-01 0. 9.
       -2     1     3     0     0   101 -5.0809489257e+00  9.8124845416e+00 -9.9387072626e+01  1.0000000000e+02  3.3000000000e-01 0. 9.
#pdf   11  -11  1.000000e+00  1.000000e+00  2.000000e+02  1.000000e+00  1.000000e+00
</event>
<event>
     5  9999  1.000000e+00  2.000000e+02  7.887732e-03  1.158210e-01
       11    -1     0     0     0     0  0.0000000000e+00  0.0000000000e+00  1.0000000000e+02  1.0000000000e+02  0.0000000000e+00 0. 9.
      -11    -1     0     0     0     0  0.0000000000e+00  0.0000000000e+00 -1.0000000000e+02  1.0000000000e+02  0.0000000000e+00 0. 9.
       23     2     1     2     0     0  0.0000000000e+00  0.0000000000e+00  0.0000000000e+00  2.0000000000e+02  2.0000000000e+02 0. 9.
        2     1     3     0   101     0 -4.1748003076e+01 -1.8848170952e+01 -8.8891741973e+01  1.0000000000e+02  3.3000000000e-01 0. 9.
       -2     1     3     0     0   101  4.1748003076e+01  1.8848170952e+01  8.8891741973e+01  1.0000000000e+02  3.3000000000e-01 0. 9.
#pdf   11  -11  1.000000e+00  1.000000e+00  2.000000e+02  1.000000e+00  1.000000e+00
</event>
<event>
     5  9999  1.000000e+00  2.000000e+02  7.887732e-03  1.158210e-01
       11    -1     0     0     0     0  0.0000000000e+00  0.0000000000e+00  1.0000000000e+02  1.0000000000e+02  0.0000000000e+00 0. 9.
      -11    -1     0     0     0     0  0.0000000000e+00  0.0000000000e+00 -1.0000000000e+02  1.0000000000e+02  0.0000000000e+00 0. 9.
       23     2     1     2     0     0  0.0000000000e+00  0.0000000000e+00  0.0000000000e+00  2.0000000000e+02  2.0000000000e+02 0. 9.
        2     1     3     0   101     0  4.6743011655e+01  8.4088110546e+01 -2.7279509273e+01  1.0000000000e+02  3.3000000000e-01 0. 9.
       -2     1     3     0     0   101 -4.6743011655e+01 -8.4088110546e+01  2.7279509273e+01  1.0000000000e+02  3.3000000000e-01 0. 9.
#pdf   11  -11  1.000000e+00  1.000000e+00  2.000000e+02  1.000000e+00  1.000000e+00
</event>
<event>
     5  9999  1.000000e+00  2.000000e+02  7.887732e-03  1.158210e-01
       11    -1     0     0     0     0  0.0000000000e+00  0.0000000000e+00  1.0000000000e+02  1.0000000000e+02  0.0000000000e+00 0. 9.
      -11    -1     0     0     0     0  0.0000000000e+00  0.0000000000e+00 -1.0000000000e+02  1.0000000000e+02  0.0000000000e+00 0. 9.
       23     2     1     2     0     0  0.0000000000e+00  0.0000000000e+00  0.0000000000e+00  2.0000000000e+02  2.0000000000e+02 0. 9.
        2     1     3     0   101     0 -3.6241514176e+01  9.2480736722e+01 -1.1565339838e+01  1.0000000000e+02  3.3000000000e-01 0. 9.
       -2     1     3     0     0   101  3.6241514176e+01 -9.2480736722e+01  1.1565339838e+01  1.0000000000e+02  3.3000000000e-01 0. 9.
#pdf   11  -11  1.000000e+00  1.000000e+00  2.000000e+02  1.000000e+00  1.000000e+00
</event>
<event>
     5  9999  1.000000e+00  2.000000e+02  7.887732e-03  1.158210e-01
       11    -1     0     0     0     0  0.0000000000e+00  0.0000000000e+00  1.0000000000e+02  1.0000000000e+02  0.0000000000e+00 0. 9.
      -11    -1     0     0     0     0  0.0000000000e+00  0.0000000000e+00 -1.0000000000e+02  1.0000000000e+02  0.0000000000e+00 0. 9.
       23     2     1     2     0     0  0.0000000000e+00  0.0000000000e+00  0.0000000000e+00  2.0000000000e+02  2.0000000000e+02 0. 9.
        2     1     3     0   101     0  1.9273928518e+01 -2.8887036536e+01  9.3776041181e+01  1.0000000000e+02  3.3000000000e-01 0. 9.
       -2     1     3     0     0   101 -1.9273928518e+01  2.8887036536e+01 -9.3776041181e+01  1.0000000000e+02  3.3000000000e-01 0. 9.
#pdf   11  -11  1.000000e+00  1.000000e+00  2.000000e+02  1.000000e+00  1.000000e+00
</event>
<event>
     5  9999  1.000000e+00  2.000000e+02  7.887732e-03  1.158210e-01
       11    -1     0     0     0     0  0.0000000000e+00  0.0000000000e+00  1.0000000000e+02  1.0000000000e+02  0.0000000000e+00 0. 9.
      -11    -1     0     0     0     0  0.0000000000e+00  0.0000000000e+00 -1.0000000000e+02  1.0000000000e+02  0.0000000000e+00 0. 9.
       23     2     1     2     0     0  0.0000000000e+00  0.0000000000e+00  0.0000000000e+00  2.0000000000e+02  2.0000000000e+02 0. 9.
        2     1     3     0   101     0  5.2255035542e+01 -2.6413005247e+01  8.1065748096e+01  1.0000000000e+02  3.3000000000e-01 0. 9.
       -2     1     3     0     0   101 -5.2255035542e+01  2.6413005247e+01 -8.1065748096e+01  1.0000000000e+02  3.3000000000e-01 0. 9.
#pdf   11  -11  1.000000e+00  1.000000e+00  2.000000e+02  1.000000e+00  1.000000e+00
</event>
<event>
     5  9999  1.000000e+00  2.000000e+02  7.887732e-03  1.158210e-01
       11    -1     0     0     0     0  0.0000000000e+00  0.0000000000e+00  1.0000000000e+02  1.0000000000e+02  0.0000000000e+00 0. 9.
      -11    -1     0     0     0     0  0.0000000000e+00  0.0000000000e+00 -1.0000000000e+02  1.0000000000e+02  0.0000000000e+00 0. 9.
       23     2     1     2     0     0  0.0000000000e+00  0.0000000000e+00  0.0000000000e+00  2.0000000000e+02  2.0000000000e+02 0. 9.
        2     1     3     0   101     0 -5.8830145049e+01  3.3459430293e+01  7.3616381723e+01  1.0000000000e+02  3.3000000000e-01 0. 9.
       -2     1     3     0     0   101  5.8830145049e+01 -3.3459430293e+01 -7.3616381723e+01  1.0000000000e+02  3.3000000000e-01 0. 9.
#pdf   11  -11  1.000000e+00  1.000000e+00  2.000000e+02  1.000000e+00  1.000000e+00
</event>
<event>
     5  9999  1.000000e+00  2.000000e+02  7.887732e-03  1.158210e-01
       11    -1     0     0     0     0  0.0000000000e+00  0.0000000000e+00  1.0000000000e+02  1.0000000000e+02  0.0000000000e+00 0. 9.
      -11    -1     0     0     0     0  0.0000000000e+00  0.0000000000e+00 -1.0000000000e+02  1.0000000000e+02  0.0000000000e+00 0. 9.
       23     2     1     2     0     0  0.0000000000e+00  0.0000000000e+00  0.0000000000e+00  2.0000000000e+02  2.0000000000e+02 0. 9.
        2     1     3     0   101     0  5.2774823547e+01  2.4236815915e+01  8.1408143658e+01  1.0000000000e+02  3.3000000000e-01 0. 9.
       -2     1     3     0     0   101 -5.2774823547e+01 -2.4236815915e+01 -8.1408143658e+01  1.0000000000e+02  3.3000000000e-01 0. 9.
#pdf   11  -11  1.000000e+00  1.000000e+00  2.000000e+02  1.000000e+00  1.000000e+00
</event>
<event>
     5  9999  1.000000e+00  2.000000e+02  7.887732e-03  1.158210e-01
       11    -1     0     0     0     0  0.0000000000e+00  0.0000000000e+00  1.0000000000e+02  1.0000000000e+02  0.0000000000e+00 0. 9.
      -11    -1     0     0     0     0  0.0000000000e+00  0.0000000000e+00 -1.0000000000e+02  1.0000000000e+02  0.0000000000e+00 0. 9.
       23     2     1     2     0     0  0.0000000000e+00  0.0000000000e+00  0.0000000000e+00  2.0000000000e+02  2.0000000000e+02 0. 9.
        2     1     3     0   101     0 -8.8477812942e+01  3.5912920478e+01  2.9695620213e+01  1.0000000000e+02  3.3000000000e-01 0. 9.
       -2     1     3     0     0   101  8.8477812942e+01 -3.5912920478e+01 -2.9695620213e+01  1.0000000000e+02  3.3000000000e-01 0. 9.
#pdf   11  -11  1.000000e+00  1.000000e+00  2.000000e+02  1.000000e+00  1.000000e+00
</event>
<event>
     5  9999  1.000000e+00  2.000000e+02  7.887732e-03  1.158210e-01
       11    -1     0     0     0     0  0.0000000000e+00  0.0000000000e+00  1.0000000000e+02  1.0000000000e+02  0.0000000000e+00 0. 9.
      -11    -1     0     0     0     0  0.0000000000e+00  0.0000000000e+00 -1.0000000000e+02  1.0000000000e+02  0.0000000000e+00 0. 9.
       23     2     1     2     0     0  0.0000000000e+00  0.0000000000e+00  0.0000000000e+00  2.0000000000e+02  2.0000000000e+02 0. 9.
        2     1     3     0   101     0  6.8950925744e+01 -6.3532589575e+01  3.4774574057e+01  1.0000000000e+02  3.3000000000e-01 0. 9.
       -2     1     3     0     0   101 -6.8950925744e+01  6.3532589575e+01 -3.4774574057e+01  1.0000000000e+02  3.3000000000e-01 0. 9.
#pdf   11  -11  1.000000e+00  1.000000e+00  2.000000e+02  1.000000e+00  1.000000e+00
</event>
<event>
     5  9999  1.000000e+00  2.000000e+02  7.887732e-03  1.158210e-01
       11    -1     0     0     0     0  0.0000000000e+00  0.0000000000e+00  1.0000000000e+02  1.0000000000e+02  0.0000000000e+00 0. 9.
      -11    -1     0     0     0     0  0.0000000000e+00  0.0000000000e+00 -1.0000000000e+02  1.0000000000e+02  0.0000000000e+00 0. 9.
       23     2     1     2     0     0  0.0000000000e+00  0.0000000000e+00  0.0000000000e+00  2.0000000000e+02  2.0000000000e+02 0. 9.
        2     1     3     0   101     0 -7.5614857337e+00 -3.5145951942e+01  9.3313863362e+01  1.0000000000e+02  3.3000000000e-01 0. 9.
       -2     1     3     0     0   101  7.5614857337e+00  3.5145951942e+01 -9.3313863362e+01  1.0000000000e+02  3.3000000000e-01 0. 9.
#pdf   11  -11  1.000000e+00  1.000000e+00  2.000000e+02  1.000000e+00  1.000000e+00
</event>
<event>
     5  9999  1.000000e+00  2.000000e+02  7.887732e-03  1.158210e-01
       11    -1     0     0     0     0  0.0000000000e+00  0.0000000000e+00  1.0000000000e+02  1.0000000000e+02  0.0000000000e+00 0. 9.
      -11    -1     0     0     0     0  0.0000000000e+00  0.0000000000e+00 -1.0000000000e+02  1.0000000000e+02  0.0000000000e+00 0. 9.
       23     2     1     2     0     0  0.0000000000e+00  0.0000000000e+00  0.0000000000e+00  2.0000000000e+02  2.0000000000e+02 0. 9.
        2     1     3     0   101     0  3.3725284699e+01  2.1224356775e+01  9.1717081023e+01  1.0000000000e+02  3.3000000000e-01 0. 9.
       -2     1     3     0     0   101 -3.3725284699e+01 -2.1224356775e+01 -9.1717081023e+01  1.0000000000e+02  3.3000000000e-01 0. 9.
#pdf   11  -11  1.000000e+00  1.000000e+00  2.000000e+02  1.000000e+00  1.000000e+00
</event>
<event>
     5  9999  1.000000e+00  2.000000e+02  7.887732e-03  1.158210e-01
       11    -1     0     0     0     0  0.0000000000e+00  0.0000000000e+00  1.0000000000e+02  1.0000000000e+02  0.0000000000e+00 0. 9.
      -11    -1     0     0     0     0  0.0000000000e+00  0.0000000000e+00 -1.0000000000e+02  1.0000000000e+02  0.0000000000e+00 0. 9.
       23     2     1     2     0     0  0.0000000000e+00  0.0000000000e+00  0.0000000000e+00  2.0000000000e+02  2.0000000000e+02 0. 9.
        2     1     3     0   101     0  2.2134772906e+01  1.4108738726e+01  9.6492934560e+01  1.0000000000e+02  3.3000000000e-01 0. 9.
       -2     1     3     0     0   101 -2.2134772906e+01 -1.4108738726e+01 -9.6492934560e+01  1.0000000000e+02  3.3000000000e-01 0. 9.
#pdf   11  -11  1.000000e+00  1.000000e+00  2.000000e+02  1.000000e+00  1.000000e+00
</event>
<event>
     5  9999  1.000000e+00  2.000000e+02  7.887732e-03  1.158210e-01
       11    -1     0     0     0     0  0.0000000000e+00  0.0000000000e+00  1.0000000000e+02  1.0000000000e+02  0.0000000000e+00 0. 9.
      -11    -1     0     0     0     0  0.0000000000e+00  0.0000000000e+00 -1.0000000000e+02  1.0000000000e+02  0.0000000000e+00 0. 9.
       23     2     1     2     0     0  0.0000000000e+00  0.0000000000e+00  0.0000000000e+00  2.0000000000e+02  2.0000000000e+02 0. 9.
        2     1     3     0   101     0 -8.2362898480e+01 -3.6807910847e+01  4.3144197212e+01  1.0000000000e+02  3.3000000000e-01 0. 9.
       -2     1     3     0     0   101  8.2362898480e+01  3.6807910847e+01 -4.3144197212e+01  1.0000000000e+02  3.3000000000e-01 0. 9.
#pdf   11  -11  1.000000e+00  1.000000e+00  2.000000e+02  1.000000e+00  1.000000e+00
</event>
<event>
     5  9999  1.000000e+00  2.000000e+02  7.887732e-03  1.158210e-01
       11    -1     0     0     0     0  0.0000000000e+00  0.0000000000e+00  1.0000000000e+02  1.0000000000e+02  0.0000000000e+00 0. 9.
      -11    -1     0     0     0     0  0.0000000000e+00  0.0000000000e+00 -1.0000000000e+02  1.0000000000e+02  0.0000000000e+00 0. 9.
       23     2     1     2     0     0  0.0000000000e+00  0.0000000000e+00  0.0000000000e+00  2.0000000000e+02  2.0000000000e+02 0. 9.
        2     1     3     0   101     0  1.4819965460e+01 -6.9730926959e+01  7.0127437920e+01  1.0000000000e+02  3.3000000000e-01 0. 9.
       -2     1     3     0     0   101 -1.4819965460e+01  6.9730926959e+01 -7.0127437920e+01  1.0000000000e+02  3.3000000000e-01 0. 9.
#pdf   11  -11  1.000000e+00  1.000000e+00  2.000000e+02  1.000000e+00  1.000000e+00
</event>
<event>
     5  9999  1.000000e+00  2.000000e+02  7.887732e-03  1.158210e-01
       11    -1     0     0     0     0  0.0000000000e+00  0.0000000000e+00  1.0000000000e+02  1.0000000000e+02  0.0000000000e+00 0. 9.
      -11    -1     0     0     0     0  0.0000000000e+00  0.0000000000e+00 -1.0000000000e+02  1.0000000000e+02  0.0000000000e+00 0. 9.
       23     2     1     2     0     0  0.0000000000e+00  0.0000000000e+00  0.0000000000e+00  2.0000000000e+02  2.0000000000e+02 0. 9.
        2     1     3     0   101     0  4.2481570936e+01 -8.6487152338e+01  2.6742844115e+01  1.0000000000e+02  3.3000000000e-01 0. 9.
       -2     1     3     0     0   101 -4.2481570936e+01  8.6487152338e+01 -2.6742844115e+01  1.0000000000e+02  3.3000000000e-01 0. 9.
#pdf   11  -11  1.000000e+00  1.000000e+00  2.000000e+02  1.000000e+00  1.000000e+00
</event>
<event>
     5  9999  1.000000e+00  2.000000e+02  7.887732e-03  1.158210e-01
       11    -1     0     0     0     0  0.0000000000e+00  0.0000000000e+00  1.0000000000e+02  1.0000000000e+02  0.0000000000e+00 0. 9.
      -11    -1     0     0     0     0  0.0000000000e+00  0.0000000000e+00 -1.0000000000e+02  1.0000000000e+02  0.0000000000e+00 0. 9.
       23     2     1     2     0     0  0.0000000000e+00  0.0000000000e+00  0.0000000000e+00  2.0000000000e+02  2.0000000000e+02 0. 9.
        2     1     3     0   101     0  9.5676222912e-01 -2.5411039459e+00  9.9962585485e+01  1.0000000000e+02  3.3000000000e-01 0. 9.
       -2     1     3     0     0   101 -9.5676222912e-01  2.5411039459e+00 -9.9962585485e+01  1.0000000000e+02  3.3000000000e-01 0. 9.
#pdf   11  -11  1.000000e+00  1.000000e+00  2.000000e+02  1.000000e+00  1.000000e+00
</event>
<event>
     5  9999  1.000000e+00  2.000000e+02  7.887732e-03  1.158210e-01
       11    -1     0     0     0     0  0.0000000000e+00  0.0000000000e+00  1.0000000000e+02  1.0000000000e+02  0.0000000000e+00 0. 9.
      -11    -1     0     0     0     0  0.0000000000e+00  0.0000000000e+00 -1.0000000000e+02  1.0000000000e+02  0.0000000000e+00 0. 9.
       23     2     1     2     0     0  0.0000000000e+00  0.0000000000e+00  0.0000000000e+00  2.0000000000e+02  2.0000000000e+02 0. 9.
        2     1     3     0   101     0 -4.3656136169e+01  8.9909868739e+01  3.2013087975e+00  1.0000000000e+02  3.3000000000e-01 0. 9.
       -2     1     3     0     0   101  4.3656136169e+01 -8.9909868739e+01 -3.2013087975e+00  1.0000000000e+02  3.3000000000e-01 0. 9.
#pdf   11  -11  1.000000e+00  1.000000e+00  2.000000e+02  1.000000e+00  1.000000e+00
</event>
<event>
     5  9999  1.000000e+00  2.000000e+02  7.887732e-03  1.158210e-01
       11    -1     0     0     0     0  0.0000000000e+00  0.0000000000e+00  1.0000000000e+02  1.0000000000e+02  0.0000000000e+00 0. 9.
      -11    -1     0     0     0     0  0.0000000000e+00  0.0000000000e+00 -1.0000000000e+02  1.0000000000e+02  0.0000000000e+00 0. 9.
       23     2     1     2     0     0  0.0000000000e+00  0.0000000000e+00  0.0000000000e+00  2.0000000000e+02  2.0000000000e+02 0. 9.
        2     1     3     0   101     0  2.2477283644e+01 -6.8314365691e+01  6.9482445699e+01  1.0000000000e+02  3.3000000000e-01 0. 9.
       -2     1     3     0     0   101 -2.2477283644e+01  6.8314365691e+01 -6.9482445699e+01  1.0000000000e+02  3.3000000000e-01 0. 9.
#pdf   11  -11  1.000000e+00  1.000000e+00  2.000000e+02  1.000000e+00  1.000000e+00
</event>
<event>
     5  9999  1.000000e+00  2.000000e+02  7.887732e-03  1.158210e-01
       11    -1     0     0     0     0  0.0000000000e+00  0.0000000000e+00  1.0000000000e+02  1.0000000000e+02  0.0000000000e+00 0. 9.
      -11    -1     0     0     0     0  0.0000000000e+00  0.0000000000e+00 -1.0000000000e+02  1.0000000000e+02  0.0000000000e+00 0. 9.
       23     2     1     2     0     0  0.0000000000e+00  0.0000000000e+00  0.0000000000e+00  2.0000000000e+02  2.0000000000e+02 0. 9.
        2     1     3     0   101     0  4.0338925189e+01 -2.4702680865e+01  8.8104709140e+01  1.0000000000e+02  3.3000000000e-01 0. 9.
       -2     1     3     0     0   101 -4.0338925189e+01  2.4702680865e+01 -8.8104709140e+01  1.0000000000e+02  3.3000000000e-01 0. 9.
#pdf   11  -11  1.000000e+00  1.000000e+00  2.000000e+02  1.000000e+00  1.000000e+00
</event>
<event>
     5  9999  1.000000e+00  2.000000e+02  7.887732e-03  1.158210e-01
       11    -1     0     0     0     0  0.0000000000e+00  0.0000000000e+00  1.0000000000e+02  1.0000000000e+02  0.0000000000e+00 0. 9.
      -11    -1     0     0     0     0  0.0000000000e+00  0.0000000000e+00 -1.0000000000e+02  1.0000000000e+02  0.0000000000e+00 0. 9.
       23     2     1     2     0     0  0.0000000000e+00  0.0000000000e+00  0.0000000000e+00  2.0000000000e+02  2.0000000000e+02 0. 9.
        2     1     3     0   101     0  9.4872280302e+01 -1.5936630000e+01  2.7297717019e+01  1.0000000000e+02  3.3000000000e-01 0. 9.
       -2     1     3     0     0   101 -9.4872280302e+01  1.5936630000e+01 -2.7297717019e+01  1.0000000000e+02  3.3000000000e-01 0. 9.
#pdf   11  -11  1.000000e+00  1.000000e+00  2.000000e+02  1.000000e+00  1.000000e+00
</event>
<event>
     5  9999  1.000000e+00  2.000000e+02  7.887732e-03  1.158210e-01
       11    -1     0     0     0     0  0.0000000000e+00  0.0000000000e+00  1.0000000000e+02  1.0000000000e+02  0.0000000000e+00 0. 9.
      -11    -1     0     0     0     0  0.0000000000e+00  0.0000000000e+00 -1.0000000000e+02  1.0000000000e+02  0.0000000000e+00 0. 9.
       23     2     1     2     0     0  0.0000000000e+00  0.0000000000e+00  0.0000000000e+00  2.0000000000e+02  2.0000000000e+02 0. 9.
        2     1     3     0   101     0  7.9984479546e+00  2.9477407705e+01  9.5220787464e+01  1.0000000000e+02  3.3000000000e-01 0. 9.
       -2     1     3     0     0   101 -7.9984479546e+00 -2.9477407705e+01 -9.5220787464e+01  1.0000000000e+02  3.3000000000e-01 0. 9.
#pdf   11  -11  1.000000e+00  1.000000e+00  2.000000e+02  1.000000e+00  1.000000e+00
</event>
<event>
     5  9999  1.000000e+00  2.000000e+02  7.887732e-03  1.158210e-01
       11    -1     0     0     0     0  0.0000000000e+00  0.0000000000e+00  1.0000000000e+02  1.0000000000e+02  0.0000000000e+00 0. 9.
      -11    -1     0     0     0     0  0.0000000000e+00  0.0000000000e+00 -1.0000000000e+02  1.0000000000e+02  0.0000000000e+00 0. 9.
       23     2     1     2     0     0  0.0000000000e+00  0.0000000000e+00  0.0000000000e+00  2.0000000000e+02  2.0000000000e+02 0. 9.
        2     1     3     0   101     0 -1.0577613466e+01  7.7824662583e+00  9.9133437408e+01  1.0000000000e+02  3.3000000000e-01 0. 9.
       -2     1     3     0     0   101  1.0577613466e+01 -7.7824662583e+00 -9.9133437408e+01  1.0000000000e+02  3.3000000000e-01 0. 9.
#pdf   11  -11  1.000000e+00  1.000000e+00  2.000000e+02  1.000000e+00  1.000000e+00
</event>
<event>
     5  9999  1.000000e+00  2.000000e+02  7.887732e-03  1.158210e-01
       11    -1     0     0     0     0  0.0000000000e+00  0.0000000000e+00  1.0000000000e+02  1.0000000000e+02  0.0000000000e+00 0. 9.
      -11    -1     0     0     0     0  0.0000000000e+00  0.0000000000e+00 -1.0000000000e+02  1.0000000000e+02  0.0000000000e+00 0. 9.
       23     2     1     2     0     0  0.0000000000e+00  0.0000000000e+00  0.0000000000e+00  2.0000000000e+02  2.0000000000e+02 0. 9.
        2     1     3     0   101     0 -3.1922421832e+00 -9.3646460328e+01  3.4929087563e+01  1.0000000000e+02  3.3000000000e-01 0. 9.
       -2     1     3     0     0   101  3.1922421832e+00  9.3646460328e+01 -3.4929087563e+01  1.0000000000e+02  3.3000000000e-01 0. 9.
#pdf   11  -11  1.000000e+00  1.000000e+00  2.000000e+02  1.000000e+00  1.000000e+00
</event>
<event>
     5  9999  1.000000e+00  2.000000e+02  7.887732e-03  1.158210e-01
       11    -1     0     0     0     0  0.0000000000e+00  0.0000000000e+00  1.0000000000e+02  1.0000000000e+02  0.0000000000e+00 0. 9.
      -11    -1     0     0     0     0  0.0000000000e+00  0.0000000000e+00 -1.0000000000e+02  1.0000000000e+02  0.0000000000e+00 0. 9.
       23     2     1     2     0     0  0.0000000000e+00  0.0000000000e+00  0.0000000000e+00  2.0000000000e+02  2.0000000000e+02 0. 9.
        2     1     3     0   101     0 -3.7834555842e+01 -9.0838292043e+01  1.7800061316e+01  1.0000000000e+02  3.3000000000e-01 0. 9.
       -2     1     3     0     0   101  3.7834555842e+01  9.0838292043e+01 -1.7800061316e+01  1.0000000000e+02  3.3000000000e-01 0. 9.
#pdf   11  -11  1.000000e+00  1.000000e+00  2.000000e+02  1.000000e+00  1.000000e+00
</event>
<event>
     5  9999  1.000000e+00  2.000000e+02  7.887732e-03  1.158210e-01
       11    -1     0     0     0     0  0.0000000000e+00  0.0000000000e+00  1.0000000000e+02  1.0000000000e+02  0.0000000000e+00 0. 9.
      -11    -1     0     0     0     0  0.0000000000e+00  0.0000000000e+00 -1.0000000000e+02  1.0000000000e+02  0.0000000000e+00 0. 9.
       23     2     1     2     0     0  0.0000000000e+00  0.0000000000e+00  0.0000000000e+00  2.0000000000e+02  2.0000000000e+02 0. 9.
        2     1     3     0   101     0 -2.1309753266e+01 -9.5702121078e+01  1.9669507795e+01  1.0000000000e+02  3.3000000000e-01 0. 9.
       -2     1     3     0     0   101  2.1309753266e+01  9.5702121078e+01 -1.9669507795e+01  1.0000000000e+02  3.3000000000e-01 0. 9.
#pdf   11  -11  1.000000e+00  1.000000e+00  2.000000e+02  1.000000e+00  1.000000e+00
</event>
<event>
     5  9999  1.000000e+00  2.000000e+02  7.887732e-03  1.158210e-01
       11    -1     0     0     0     0  0.0000000000e+00  0.0000000000e+00  1.0000000000e+02  1.0000000000e+02  0.0000000000e+00 0. 9.
      -11    -1     0     0     0     0  0.0000000000e+00  0.0000000000e+00 -1.0000000000e+02  1.0000000000e+02  0.0000000000e+00 0. 9.
       23     2     1     2     0     0  0.0000000000e+00  0.0000000000e+00  0.0000000000e+00  2.0000000000e+02  2.0000000000e+02 0. 9.
        2     1     3     0   101     0  1.5228330378e+01  2.2083057287e+01  9.6334457152e+01  1.0000000000e+02  3.3000000000e-01 0. 9.
       -2     1     3     0     0   101 -1.5228330378e+01 -2.2083057287e+01 -9.6334457152e+01  1.0000000000e+02  3.3000000000e-01 0. 9.
#pdf   11  -11  1.000000e+00  1.000000e+00  2.000000e+02  1.000000e+00  1.000000e+00
</event>
<event>
     5  9999  1.000000e+00  2.000000e+02  7.887732e-03  1.158210e-01
       11    -1     0     0     0     0  0.0000000000e+00  0.0000000000e+00  1.0000000000e+02  1.0000000000e+02  0.0000000000e+00 0. 9.
      -11    -1     0     0     0     0  0.0000000000e+00  0.0000000000e+00 -1.0000000000e+02  1.0000000000e+02  0.0000000000e+00 0. 9.
       23     2     1     2     0     0  0.0000000000e+00  0.0000000000e+00  0.0000000000e+00  2.0000000000e+02  2.0000000000e+02 0. 9.
        2     1     3     0   101     0 -6.5200980326e+01  1.7041289474e+01  7.3880428515e+01  1.0000000000e+02  3.3000000000e-01 0. 9.
       -2     1     3     0     0   101  6.5200980326e+01 -1.7041289474e+01 -7.3880428515e+01  1.0000000000e+02  3.3000000000e-01 0. 9.
#pdf   11  -11  1.000000e+00  1.000000e+00  2.000000e+02  1.000000e+00  1.000000e+00
</event>
<event>
     5  9999  1.000000e+00  2.000000e+02  7.887732e-03  1.158210e-01
       11    -1     0     0     0     0  0.0000000000e+00  0.0000000000e+00  1.0000000000e+02  1.0000000000e+02  0.0000000000e+00 0. 9.
      -11    -1     0     0     0     0  0.0000000000e+00  0.0000000000e+00 -1.0000000000e+02  1.0000000000e+02  0.0000000000e+00 0. 9.
       23     2     1     2     0     0  0.0000000000e+00  0.0000000000e+00  0.0000000000e+00  2.0000000000e+02  2.0000000000e+02 0. 9.
        2     1     3     0   101     0  3.3663707692e+01  6.7329229206e+01  6.5828723054e+01  1.0000000000e+02  3.3000000000e-01 0. 9.
       -2     1     3     0     0   101 -3.3663707692e+01 -6.7329229206e+01 -6.5828723054e+01  1.0000000000e+02  3.3000000000e-01 0. 9.
#pdf   11  -11  1.000000e+00  1.000000e+00  2.000000e+02  1.000000e+00  1.000000e+00
</event>
<event>
     5  9999  1.000000e+00  2.000000e+02  7.887732e-03  1.158210e-01
       11    -1     0     0     0     0  0.0000000000e+00  0.0000000000e+00  1.0000000000e+02  1.0000000000e+02  0.0000000000e+00 0. 9.
      -11    -1     0     0     0     0  0.0000000000e+00  0.0000000000e+00 -1.0000000000e+02  1.0000000000e+02  0.0000000000e+00 0. 9.
       23     2     1     2     0     0  0.0000000000e+00  0.0000000000e+00  0.0000000000e+00  2.0000000000e+02  2.0000000000e+02 0. 9.
        2     1     3     0   101     0  2.7630680203e+01  1.4986717586e+01  9.4930684752e+01  1.0000000000e+02  3.3000000000e-01 0. 9.
       -2     1     3     0     0   101 -2.7630680203e+01 -1.4986717586e+01 -9.4930684752e+01  1.0000000000e+02  3.3000000000e-01 0. 9.
#pdf   11  -11  1.000000e+00  1.000000e+00  2.000000e+02  1.000000e+00  1.000000e+00
</event>
<event>
     5  9999  1.000000e+00  2.000000e+02  7.887732e-03  1.158210e-01
       11    -1     0     0     0     0  0.0000000000e+00  0.0000000000e+00  1.0000000000e+02  1.0000000000e+02  0.0000000000e+00 0. 9.
      -11    -1     0     0     0     0  0.0000000000e+00  0.0000000000e+00 -1.0000000000e+02  1.0000000000e+02  0.0000000000e+00 0. 9.
       23     2     1     2     0     0  0.0000000000e+00  0.0000000000e+00  0.0000000000e+00  2.0000000000e+02  2.0000000000e+02 0. 9.
        2     1     3     0   101     0  5.3527361305e+01  1.4705420963e+01  8.3177300305e+01  1.0000000000e+02  3.3000000000e-01 0. 9.
       -2     1     3     0     0   101 -5.3527361305e+01 -1.4705420963e+01 -8.3177300305e+01  1.0000000000e+02  3.3000000000e-01 0. 9.
#pdf   11  -11  1.000000e+00  1.000000e+00  2.000000e+02  1.000000e+00  1.000000e+00
</event>
<event>
     5  9999  1.000000e+00  2.000000e+02  7.887732e-03  1.158210e-01
       11    -1     0     0     0     0  0.0000000000e+00  0.0000000000e+00  1.0000000000e+02  1.0000000000e+02  0.0000000000e+00 0. 9.
      -11    -1     0     0     0     0  0.0000000000e+00  0.0000000000e+00 -1.0000000000e+02  1.0000000000e+02  0.0000000000e+00 0. 9.
       23     2     1     2     0     0  0.0000000000e+00  0.0000000000e+00  0.0000000000e+00  2.0000000000e+02  2.0000000000e+02 0. 9.
        2     1     3     0   101     0  9.7351635648e+00 -8.5297630016e+01  5.1277987520e+01  1.0000000000e+02  3.3000000000e-01 0. 9.
       -2     1     3     0     0   101 -9.7351635648e+00  8.5297630016e+01 -5.1277987520e+01  1.0000000000e+02  3.3000000000e-01 0. 9.
#pdf   11  -11  1.000000e+00  1.000000e+00  2.000000e+02  1.000000e+00  1.000000e+00
</event>
<event>
     5  9999  1.000000e+00  2.000000e+02  7.887732e-03  1.158210e-01
       11    -1     0     0     0     0  0.0000000000e+00  0.0000000000e+00  1.0000000000e+02  1.0000000000e+02  0.0000000000e+00 0. 9.
      -11    -1     0     0     0     0  0.0000000000e+00  0.0000000000e+00 -1.0000000000e+02  1.0000000000e+02  0.0000000000e+00 0. 9.
       23     2     1     2     0     0  0.0000000000e+00  0.0000000000e+00  0.0000000000e+00  2.0000000000e+02  2.0000000000e+02 0. 9.
        2     1     3     0   101     0  2.1606185216e+01  1.0054041995e+01  9.7118381885e+01  1.0000000000e+02  3.3000000000e-01 0. 9.
       -2     1     3     0     0   101 -2.1606185216e+01 -1.0054041995e+01 -9.7118381885e+01  1.0000000000e+02  3.3000000000e-01 0. 9.
#pdf   11  -11  1.000000e+00  1.000000e+00  2.000000e+02  1.000000e+00  1.000000e+00
</event>
<event>
     5  9999  1.000000e+00  2.000000e+02  7.887732e-03  1.158210e-01
       11    -1     0     0     0     0  0.0000000000e+00  0.0000000000e+00  1.0000000000e+02  1.0000000000e+02  0.0000000000e+00 0. 9.
      -11    -1     0     0     0     0  0.0000000000e+00  0.0000000000e+00 -1.0000000000e+02  1.0000000000e+02  0.0000000000e+00 0. 9.
       23     2     1     2     0     0  0.0000000000e+00  0.0000000000e+00  0.0000000000e+00  2.0000000000e+02  2.0000000000e+02 0. 9.
        2     1     3     0   101     0  1.8117555455e+01  9.2230907215e+01  3.4133635004e+01  1.0000000000e+02  3.3000000000e-01 0. 9.
       -2     1     3     0     0   101 -1.8117555455e+01 -9.2230907215e+01 -3.4133635004e+01  1.0000000000e+02  3.3000000000e-01 0. 9.
#pdf   11  -11  1.000000e+00  1.000000e+00  2.000000e+02  1.000000e+00  1.000000e+00
</event>
<event>
     5  9999  1.000000e+00  2.000000e+02  7.887732e-03  1.158210e-01
       11    -1     0     0     0     0  0.0000000000e+00  0.0000000000e+00  1.0000000000e+02  1.0000000000e+02  0.0000000000e+00 0. 9.
      -11    -1     0     0     0     0  0.0000000000e+00  0.0000000000e+00 -1.0000000000e+02  1.0000000000e+02  0.0000000000e+00 0. 9.
       23     2     1     2     0     0  0.0000000000e+00  0.0000000000e+00  0.0000000000e+00  2.0000000000e+02  2.0000000000e+02 0. 9.
        2     1     3     0   101     0 -6.3797752623e+01  4.5818755053e+01 -6.1890060152e+01  1.0000000000e+02  3.3000000000e-01 0. 9.
       -2     1     3     0     0   101  6.3797752623e+01 -4.5818755053e+01  6.1890060152e+01  1.0000000000e+02  3.3000000000e-01 0. 9.
#pdf   11  -11  1.000000e+00  1.000000e+00  2.000000e+02  1.000000e+00  1.000000e+00
</event>
<event>
     5  9999  1.000000e+00  2.000000e+02  7.887732e-03  1.158210e-01
       11    -1     0     0     0     0  0.0000000000e+00  0.0000000000e+00  1.0000000000e+02  1.0000000000e+02  0.0000000000e+00 0. 9.
      -11    -1     0     0     0     0  0.0000000000e+00  0.0000000000e+00 -1.0000000000e+02  1.0000000000e+02  0.0000000000e+00 0. 9.
       23     2     1     2     0     0  0.0000000000e+00  0.0000000000e+00  0.0000000000e+00  2.0000000000e+02  2.0000000000e+02 0. 9.
        2     1     3     0   101     0  1.0989031749e+01 -3.8420793751e+01  9.1667741811e+01  1.0000000000e+02  3.3000000000e-01 0. 9.
       -2     1     3     0     0   101 -1.0989031749e+01  3.8420793751e+01 -9.1667741811e+01  1.0000000000e+02  3.3000000000e-01 0. 9.
#pdf   11  -11  1.000000e+00  1.000000e+00  2.000000e+02  1.000000e+00  1.000000e+00
</event>
<event>
     5  9999  1.000000e+00  2.000000e+02  7.887732e-03  1.158210e-01
       11    -1     0     0     0     0  0.0000000000e+00  0.0000000000e+00  1.0000000000e+02  1.0000000000e+02  0.0000000000e+00 0. 9.
      -11    -1     0     0     0     0  0.0000000000e+00  0.0000000000e+00 -1.0000000000e+02  1.0000000000e+02  0.0000000000e+00 0. 9.
       23     2     1     2     0     0  0.0000000000e+00  0.0000000000e+00  0.0000000000e+00  2.0000000000e+02  2.0000000000e+02 0. 9.
        2     1     3     0   101     0  1.9318960014e+01 -9.7886743346e+01 -6.6973398597e+00  1.0000000000e+02  3.3000000000e-01 0. 9.
       -2     1     3     0     0   101 -1.9318960014e+01  9.7886743346e+01  6.6973398597e+00  1.0000000000e+02  3.3000000000e-01 0. 9.
#pdf   11  -11  1.000000e+00  1.000000e+00  2.000000e+02  1.000000e+00  1.000000e+00
</event>
<event>
     5  9999  1.000000e+00  2.000000e+02  7.887732e-03  1.158210e-01
       11    -1     0     0     0     0  0.0000000000e+00  0.0000000000e+00  1.0000000000e+02  1.0000000000e+02  0.0000000000e+00 0. 9.
      -11    -1     0     0     0     0  0.0000000000e+00  0.0000000000e+00 -1.0000000000e+02  1.0000000000e+02  0.0000000000e+00 0. 9.
       23     2     1     2     0     0  0.0000000000e+00  0.0000000000e+00  0.0000000000e+00  2.0000000000e+02  2.0000000000e+02 0. 9.
        2     1     3     0   101     0  6.4115095017e+01 -2.9189456107e+01  7.0972680259e+01  1.0000000000e+02  3.3000000000e-01 0. 9.
       -2     1     3     0     0   101 -6.4115095017e+01  2.9189456107e+01 -7.0972680259e+01  1.0000000000e+02  3.3000000000e-01 0. 9.
#pdf   11  -11  1.000000e+00  1.000000e+00  2.000000e+02  1.000000e+00  1.000000e+00
</event>
<event>
     5  9999  1.000000e+00  2.000000e+02  7.887732e-03  1.158210e-01
       11    -1     0     0     0     0  0.0000000000e+00  0.0000000000e+00  1.0000000000e+02  1.0000000000e+02  0.0000000000e+00 0. 9.
      -11    -1     0     0     0     0  0.0000000000e+00  0.0000000000e+00 -1.0000000000e+02  1.0000000000e+02  0.0000000000e+00 0. 9.
       23     2     1     2     0     0  0.0000000000e+00  0.0000000000e+00  0.0000000000e+00  2.0000000000e+02  2.0000000000e+02 0. 9.
        2     1     3     0   101     0  2.4830768013e+00  5.3847471151e+01  8.4226927287e+01  1.0000000000e+02  3.3000000000e-01 0. 9.
       -2     1     3     0     0   101 -2.4830768013e+00 -5.3847471151e+01 -8.4226927287e+01  1.0000000000e+02  3.3000000000e-01 0. 9.
#pdf   11  -11  1.000000e+00  1.000000e+00  2.000000e+02  1.000000e+00  1.000000e+00
</event>
<event>
     5  9999  1.000000e+00  2.000000e+02  7.887732e-03  1.158210e-01
       11    -1     0     0     0     0  0.0000000000e+00  0.0000000000e+00  1.0000000000e+02  1.0000000000e+02  0.0000000000e+00 0. 9.
      -11    -1     0     0     0     0  0.0000000000e+00  0.0000000000e+00 -1.0000000000e+02  1.0000000000e+02  0.0000000000e+00 0. 9.
       23     2     1     2     0     0  0.0000000000e+00  0.0000000000e+00  0.0000000000e+00  2.0000000000e+02  2.0000000000e+02 0. 9.
        2     1     3     0   101     0 -7.9077037023e+01 -5.1619359371e+01 -3.2896125208e+01  1.0000000000e+02  3.3000000000e-01 0. 9.
       -2     1     3     0     0   101  7.9077037023e+01  5.1619359371e+01  3.2896125208e+01  1.0000000000e+02  3.3000000000e-01 0. 9.
#pdf   11  -11  1.000000e+00  1.000000e+00  2.000000e+02  1.000000e+00  1.000000e+00
</event>
<event>
     5  9999  1.000000e+00  2.000000e+02  7.887732e-03  1.158210e-01
       11    -1     0     0     0     0  0.0000000000e+00  0.0000000000e+00  1.0000000000e+02  1.0000000000e+02  0.0000000000e+00 0. 9.
      -11    -1     0     0     0     0  0.0000000000e+00  0.0000000000e+00 -1.0000000000e+02  1.0000000000e+02  0.0000000000e+00 0. 9.
       23     2     1     2     0     0  0.0000000000e+00  0.0000000000e+00  0.0000000000e+00  2.0000000000e+02  2.0000000000e+02 0. 9.
        2     1     3     0   101     0  3.6730975872e+01  8.7658398415e+01  3.1092309320e+01  1.0000000000e+02  3.3000000000e-01 0. 9.
       -2     1     3     0     0   101 -3.6730975872e+01 -8.7658398415e+01 -3.1092309320e+01  1.0000000000e+02  3.3000000000e-01 0. 9.
#pdf   11  -11  1.000000e+00  1.000000e+00  2.000000e+02  1.000000e+00  1.000000e+00
</event>
<event>
     5  9999  1.000000e+00  2.000000e+02  7.887732e-03  1.158210e-01
       11    -1     0     0     0     0  0.0000000000e+00  0.0000000000e+00  1.0000000000e+02  1.0000000000e+02  0.0000000000e+00 0. 9.
      -11    -1     0     0     0     0  0.0000000000e+00  0.0000000000e+00 -1.0000000000e+02  1.0000000000e+02  0.0000000000e+00 0. 9.
       23     2     1     2     0     0  0.0000000000e+00  0.0000000000e+00  0.0000000000e+00  2.0000000000e+02  2.0000000000e+02 0. 9.
        2     1     3     0   101     0  8.0562893325e+00  9.6209595596e+01  2.6051890860e+01  1.0000000000e+02  3.3000000000e-01 0. 9.
       -2     1     3     0     0   101 -8.0562893325e+00 -9.6209595596e+01 -2.6051890860e+01  1.0000000000e+02  3.3000000000e-01 0. 9.
#pdf   11  -11  1.000000e+00  1.000000e+00  2.000000e+02  1.000000e+00  1.000000e+00
</event>
<event>
     5  9999  1.000000e+00  2.000000e+02  7.887732e-03  1.158210e-01
       11    -1     0     0     0     0  0.0000000000e+00  0.0000000000e+00  1.0000000000e+02  1.0000000000e+02  0.0000000000e+00 0. 9.
      -11    -1     0     0     0     0  0.0000000000e+00  0.0000000000e+00 -1.0000000000e+02  1.0000000000e+02  0.0000000000e+00 0. 9.
       23     2     1     2     0     0  0.0000000000e+00  0.0000000000e+00  0.0000000000e+00  2.0000000000e+02  2.0000000000e+02 0. 9.
        2     1     3     0   101     0 -7.5470180824e+01 -4.5582924411e+01  4.7184106525e+01  1.0000000000e+02  3.3000000000e-01 0. 9.
       -2     1     3     0     0   101  7.5470180824e+01  4.5582924411e+01 -4.7184106525e+01  1.0000000000e+02  3.3000000000e-01 0. 9.
#pdf   11  -11  1.000000e+00  1.000000e+00  2.000000e+02  1.000000e+00  1.000000e+00
</event>
<event>
     5  9999  1.000000e+00  2.000000e+02  7.887732e-03  1.158210e-01
       11    -1     0     0     0     0  0.0000000000e+00  0.0000000000e+00  1.0000000000e+02  1.0000000000e+02  0.0000000000e+00 0. 9.
      -11    -1     0     0     0     0  0.0000000000e+00  0.0000000000e+00 -1.0000000000e+02  1.0000000000e+02  0.0000000000e+00 0. 9.
       23     2     1     2     0     0  0.0000000000e+00  0.0000000000e+00  0.0000000000e+00  2.0000000000e+02  2.0000000000e+02 0. 9.
        2     1     3     0   101     0 -8.0186296945e+01  1.4139085803e+01  5.8052865001e+01  1.0000000000e+02  3.3000000000e-01 0. 9.
       -2     1     3     0     0   101  8.0186296945e+01 -1.4139085803e+01 -5.8052865001e+01  1.0000000000e+02  3.3000000000e-01 0. 9.
#pdf   11  -11  1.000000e+00  1.000000e+00  2.000000e+02  1.000000e+00  1.000000e+00
</event>
<event>
     5  9999  1.000000e+00  2.000000e+02  7.887732e-03  1.158210e-01
       11    -1     0     0     0     0  0.0000000000e+00  0.0000000000e+00  1.0000000000e+02  1.0000000000e+02  0.0000000000e+00 0. 9.
      -11    -1     0     0     0     0  0.0000000000e+00  0.0000000000e+00 -1.0000000000e+02  1.0000000000e+02  0.0000000000e+00 0. 9.
       23     2     1     2     0     0  0.0000000000e+00  0.0000000000e+00  0.0000000000e+00  2.0000000000e+02  2.0000000000e+02 0. 9.
        2     1     3     0   101     0 -7.2985900761e+01 -4.5453816078e+01  5.1057810314e+01  1.0000000000e+02  3.3000000000e-01 0. 9.
       -2     1     3     0     0   101  7.2985900761e+01  4.5453816078e+01 -5.1057810314e+01  1.0000000000e+02  3.3000000000e-01 0. 9.
#pdf   11  -11  1.000000e+00  1.000000e+00  2.000000e+02  1.000000e+00  1.000000e+00
</event>
<event>
     5  9999  1.000000e+00  2.000000e+02  7.887732e-03  1.158210e-01
       11    -1     0     0     0     0  0.0000000000e+00  0.0000000000e+00  1.0000000000e+02  1.0000000000e+02  0.0000000000e+00 0. 9.
      -11    -1     0     0     0     0  0.0000000000e+00  0.0000000000e+00 -1.0000000000e+02  1.0000000000e+02  0.0000000000e+00 0. 9.
       23     2     1     2     0     0  0.0000000000e+00  0.0000000000e+00  0.0000000000e+00  2.0000000000e+02  2.0000000000e+02 0. 9.
        2     1     3     0   101     0  6.2486323114e+01  6.2078824553e+01  4.7345222207e+01  1.0000000000e+02  3.3000000000e-01 0. 9.
       -2     1     3     0     0   101 -6.2486323114e+01 -6.2078824553e+01 -4.7345222207e+01  1.0000000000e+02  3.3000000000e-01 0. 9.
#pdf   11  -11  1.000000e+00  1.000000e+00  2.000000e+02  1.000000e+00  1.000000e+00
</event>
<event>
     5  9999  1.000000e+00  2.000000e+02  7.887732e-03  1.158210e-01
       11    -1     0     0     0     0  0.0000000000e+00  0.0000000000e+00  1.0000000000e+02  1.0000000000e+02  0.0000000000e+00 0. 9.
      -11    -1     0     0     0     0  0.0000000000e+00  0.0000000000e+00 -1.0000000000e+02  1.0000000000e+02  0.0000000000e+00 0. 9.
       23     2     1     2     0     0  0.0000000000e+00  0.0000000000e+00  0.0000000000e+00  2.0000000000e+02  2.0000000000e+02 0. 9.
        2     1     3     0   101     0 -3.8116346795e+01 -6.2397834078e+01  6.8216900468e+01  1.0000000000e+02  3.3000000000e-01 0. 9.
       -2     1     3     0     0   101  3.8116346795e+01  6.2397834078e+01 -6.8216900468e+01  1.0000000000e+02  3.3000000000e-01 0. 9.
#pdf   11  -11  1.000000e+00  1.000000e+00  2.000000e+02  1.000000e+00  1.000000e+00
</event>
<event>
     5  9999  1.000000e+00  2.000000e+02  7.887732e-03  1.158210e-01
       11    -1     0     0     0     0  0.0000000000e+00  0.0000000000e+00  1.0000000000e+02  1.0000000000e+02  0.0000000000e+00 0. 9.
      -11    -1     0     0     0     0  0.0000000000e+00  0.0000000000e+00 -1.0000000000e+02  1.0000000000e+02  0.0000000000e+00 0. 9.
       23     2     1     2     0     0  0.0000000000e+00  0.0000000000e+00  0.0000000000e+00  2.0000000000e+02  2.0000000000e+02 0. 9.
        2     1     3     0   101     0  1.9749128222e+01 -4.0835438736e+01  8.9119750772e+01  1.0000000000e+02  3.3000000000e-01 0. 9.
       -2     1     3     0     0   101 -1.9749128222e+01  4.0835438736e+01 -8.9119750772e+01  1.0000000000e+02  3.3000000000e-01 0. 9.
#pdf   11  -11  1.000000e+00  1.000000e+00  2.000000e+02  1.000000e+00  1.000000e+00
</event>
<event>
     5  9999  1.000000e+00  2.000000e+02  7.887732e-03  1.158210e-01
       11    -1     0     0     0     0  0.0000000000e+00  0.0000000000e+00  1.0000000000e+02  1.0000000000e+02  0.0000000000e+00 0. 9.
      -11    -1     0     0     0     0  0.0000000000e+00  0.0000000000e+00 -1.0000000000e+02  1.0000000000e+02  0.0000000000e+00 0. 9.
       23     2     1     2     0     0  0.0000000000e+00  0.0000000000e+00  0.0000000000e+00  2.0000000000e+02  2.0000000000e+02 0. 9.
        2     1     3     0   101     0  6.7504463001e+01  6.8177567245e+01  2.8193224353e+01  1.0000000000e+02  3.3000000000e-01 0. 9.
       -2     1     3     0     0   101 -6.7504463001e+01 -6.8177567245e+01 -2.8193224353e+01  1.0000000000e+02  3.3000000000e-01 0. 9.
#pdf   11  -11  1.000000e+00  1.000000e+00  2.000000e+02  1.000000e+00  1.000000e+00
</event>
<event>
     5  9999  1.000000e+00  2.000000e+02  7.887732e-03  1.158210e-01
       11    -1     0     0     0     0  0.0000000000e+00  0.0000000000e+00  1.0000000000e+02  1.0000000000e+02  0.0000000000e+00 0. 9.
      -11    -1     0     0     0     0  0.0000000000e+00  0.0000000000e+00 -1.0000000000e+02  1.0000000000e+02  0.0000000000e+00 0. 9.
       23     2     1     2     0     0  0.0000000000e+00  0.0000000000e+00  0.0000000000e+00  2.0000000000e+02  2.0000000000e+02 0. 9.
        2     1     3     0   101     0  4.1720410081e+01  8.4230491415e+01  3.4125105109e+01  1.0000000000e+02  3.3000000000e-01 0. 9.
       -2     1     3     0     0   101 -4.1720410081e+01 -8.4230491415e+01 -3.4125105109e+01  1.0000000000e+02  3.3000000000e-01 0. 9.
#pdf   11  -11  1.000000e+00  1.000000e+00  2.000000e+02  1.000000e+00  1.000000e+00
</event>
<event>
     5  9999  1.000000e+00  2.000000e+02  7.887732e-03  1.158210e-01
       11    -1     0     0     0     0  0.0000000000e+00  0.0000000000e+00  1.0000000000e+02  1.0000000000e+02  0.0000000000e+00 0. 9.
      -11    -1     0     0     0     0  0.0000000000e+00  0.0000000000e+00 -1.0000000000e+02  1.0000000000e+02  0.0000000000e+00 0. 9.
       23     2     1     2     0     0  0.0000000000e+00  0.0000000000e+00  0.0000000000e+00  2.0000000000e+02  2.0000000000e+02 0. 9.
        2     1     3     0   101     0 -7.4712174553e+01  5.9890389285e+01 -2.8829209925e+01  1.0000000000e+02  3.3000000000e-01 0. 9.
       -2     1     3     0     0   101  7.4712174553e+01 -5.9890389285e+01  2.8829209925e+01  1.0000000000e+02  3.3000000000e-01 0. 9.
#pdf   11  -11  1.000000e+00  1.000000e+00  2.000000e+02  1.000000e+00  1.000000e+00
</event>
<event>
     5  9999  1.000000e+00  2.000000e+02  7.887732e-03  1.158210e-01
       11    -1     0     0     0     0  0.0000000000e+00  0.0000000000e+00  1.0000000000e+02  1.0000000000e+02  0.0000000000e+00 0. 9.
      -11    -1     0     0     0     0  0.0000000000e+00  0.0000000000e+00 -1.0000000000e+02  1.0000000000e+02  0.0000000000e+00 0. 9.
       23     2     1     2     0     0  0.0000000000e+00  0.0000000000e+00  0.0000000000e+00  2.0000000000e+02  2.0000000000e+02 0. 9.
        2     1     3     0   101     0  2.0910283843e+01 -8.5334954663e+01  4.7755592785e+01  1.0000000000e+02  3.3000000000e-01 0. 9.
       -2     1     3     0     0   101 -2.0910283843e+01  8.5334954663e+01 -4.7755592785e+01  1.0000000000e+02  3.3000000000e-01 0. 9.
#pdf   11  -11  1.000000e+00  1.000000e+00  2.000000e+02  1.000000e+00  1.000000e+00
</event>
<event>
     5  9999  1.000000e+00  2.000000e+02  7.887732e-03  1.158210e-01
       11    -1     0     0     0     0  0.0000000000e+00  0.0000000000e+00  1.0000000000e+02  1.0000000000e+02  0.0000000000e+00 0. 9.
      -11    -1     0     0     0     0  0.0000000000e+00  0.0000000000e+00 -1.0000000000e+02  1.0000000000e+02  0.0000000000e+00 0. 9.
       23     2     1     2     0     0  0.0000000000e+00  0.0000000000e+00  0.0000000000e+00  2.0000000000e+02  2.0000000000e+02 0. 9.
        2     1     3     0   101     0  3.6180110018e+01  5.2511320219e+01  7.7028903588e+01  1.0000000000e+02  3.3000000000e-01 0. 9.
       -2     1     3     0     0   101 -3.6180110018e+01 -5.2511320219e+01 -7.7028903588e+01  1.0000000000e+02  3.3000000000e-01 0. 9.
#pdf   11  -11  1.000000e+00  1.000000e+00  2.000000e+02  1.000000e+00  1.000000e+00
</event>
<event>
     5  9999  1.000000e+00  2.000000e+02  7.887732e-03  1.158210e-01
       11    -1     0     0     0     0  0.0000000000e+00  0.0000000000e+00  1.0000000000e+02  1.0000000000e+02  0.0000000000e+00 0. 9.
      -11    -1     0     0     0     0  0.0000000000e+00  0.0000000000e+00 -1.0000000000e+02  1.0000000000e+02  0.0000000000e+00 0. 9.
       23     2     1     2     0     0  0.0000000000e+00  0.0000000000e+00  0.0000000000e+00  2.0000000000e+02  2.0000000000e+02 0. 9.
        2     1     3     0   101     0  7.4804616456e+01  2.8278436861e+01  6.0037408885e+01  1.0000000000e+02  3.3000000000e-01 0. 9.
       -2     1     3     0     0   101 -7.4804616456e+01 -2.8278436861e+01 -6.0037408885e+01  1.0000000000e+02  3.3000000000e-01 0. 9.
#pdf   11  -11  1.000000e+00  1.000000e+00  2.000000e+02  1.000000e+00  1.000000e+00
</event>
<event>
     5  9999  1.000000e+00  2.000000e+02  7.887732e-03  1.158210e-01
       11    -1     0     0     0     0  0.0000000000e+00  0.0000000000e+00  1.0000000000e+02  1.0000000000e+02  0.0000000000e+00 0. 9.
      -11    -1     0     0     0     0  0.0000000000e+00  0.0000000000e+00 -1.0000000000e+02  1.0000000000e+02  0.0000000000e+00 0. 9.
       23     2     1     2     0     0  0.0000000000e+00  0.0000000000e+00  0.0000000000e+00  2.0000000000e+02  2.0000000000e+02 0. 9.
        2     1     3     0   101     0 -9.5156496230e+00 -2.0771225048e+00  9.9524012552e+01  1.0000000000e+02  3.3000000000e-01 0. 9.
       -2     1     3     0     0   101  9.5156496230e+00  2.0771225048e+00 -9.9524012552e+01  1.0000000000e+02  3.3000000000e-01 0. 9.
#pdf   11  -11  1.000000e+00  1.000000e+00  2.000000e+02  1.000000e+00  1.000000e+00
</event>
<event>
     5  9999  1.000000e+00  2.000000e+02  7.887732e-03  1.158210e-01
       11    -1     0     0     0     0  0.0000000000e+00  0.0000000000e+00  1.0000000000e+02  1.0000000000e+02  0.0000000000e+00 0. 9.
      -11    -1     0     0     0     0  0.0000000000e+00  0.0000000000e+00 -1.0000000000e+02  1.0000000000e+02  0.0000000000e+00 0. 9.
       23     2     1     2     0     0  0.0000000000e+00  0.0000000000e+00  0.0000000000e+00  2.0000000000e+02  2.0000000000e+02 0. 9.
        2     1     3     0   101     0 -1.2635186150e+01  4.4390267903e+01  8.8711596122e+01  1.0000000000e+02  3.3000000000e-01 0. 9.
       -2     1     3     0     0   101  1.2635186150e+01 -4.4390267903e+01 -8.8711596122e+01  1.0000000000e+02  3.3000000000e-01 0. 9.
#pdf   11  -11  1.000000e+00  1.000000e+00  2.000000e+02  1.000000e+00  1.000000e+00
</event>
<event>
     5  9999  1.000000e+00  2.000000e+02  7.887732e-03  1.158210e-01
       11    -1     0     0     0     0  0.0000000000e+00  0.0000000000e+00  1.0000000000e+02  1.0000000000e+02  0.0000000000e+00 0. 9.
      -11    -1     0     0     0     0  0.0000000000e+00  0.0000000000e+00 -1.0000000000e+02  1.0000000000e+02  0.0000000000e+00 0. 9.
       23     2     1     2     0     0  0.0000000000e+00  0.0000000000e+00  0.0000000000e+00  2.0000000000e+02  2.0000000000e+02 0. 9.
        2     1     3     0   101     0  4.3905790461e+01 -8.5475898826e+01  2.7677488757e+01  1.0000000000e+02  3.3000000000e-01 0. 9.
       -2     1     3     0     0   101 -4.3905790461e+01  8.5475898826e+01 -2.7677488757e+01  1.0000000000e+02  3.3000000000e-01 0. 9.
#pdf   11  -11  1.000000e+00  1.000000e+00  2.000000e+02  1.000000e+00  1.000000e+00
</event>
<event>
     5  9999  1.000000e+00  2.000000e+02  7.887732e-03  1.158210e-01
       11    -1     0     0     0     0  0.0000000000e+00  0.0000000000e+00  1.0000000000e+02  1.0000000000e+02  0.0000000000e+00 0. 9.
      -11    -1     0     0     0     0  0.0000000000e+00  0.0000000000e+00 -1.0000000000e+02  1.0000000000e+02  0.0000000000e+00 0. 9.
       23     2     1     2     0     0  0.0000000000e+00  0.0000000000e+00  0.0000000000e+00  2.0000000000e+02  2.0000000000e+02 0. 9.
        2     1     3     0   101     0 -9.7405917131e+01  1.7080529835e+01 -1.4840279931e+01  1.0000000000e+02  3.3000000000e-01 0. 9.
       -2     1     3     0     0   101  9.7405917131e+01 -1.7080529835e+01  1.4840279931e+01  1.0000000000e+02  3.3000000000e-01 0. 9.
#pdf   11  -11  1.000000e+00  1.000000e+00  2.000000e+02  1.000000e+00  1.000000e+00
</event>
<event>
     5  9999  1.000000e+00  2.000000e+02  7.887732e-03  1.158210e-01
       11    -1     0     0     0     0  0.0000000000e+00  0.0000000000e+00  1.0000000000e+02  1.0000000000e+02  0.0000000000e+00 0. 9.
      -11    -1     0     0     0     0  0.0000000000e+00  0.0000000000e+00 -1.0000000000e+02  1.0000000000e+02  0.0000000000e+00 0. 9.
       23     2     1     2     0     0  0.0000000000e+00  0.0000000000e+00  0.0000000000e+00  2.0000000000e+02  2.0000000000e+02 0. 9.
        2     1     3     0   101     0 -6.2426864333e+01 -2.5347344146e+01  7.3893774124e+01  1.0000000000e+02  3.3000000000e-01 0. 9.
       -2     1     3     0     0   101  6.2426864333e+01  2.5347344146e+01 -7.3893774124e+01  1.0000000000e+02  3.3000000000e-01 0. 9.
#pdf   11  -11  1.000000e+00  1.000000e+00  2.000000e+02  1.000000e+00  1.000000e+00
</event>
<event>
     5  9999  1.000000e+00  2.000000e+02  7.887732e-03  1.158210e-01
       11    -1     0     0     0     0  0.0000000000e+00  0.0000000000e+00  1.0000000000e+02  1.0000000000e+02  0.0000000000e+00 0. 9.
      -11    -1     0     0     0     0  0.0000000000e+00  0.0000000000e+00 -1.0000000000e+02  1.0000000000e+02  0.0000000000e+00 0. 9.
       23     2     1     2     0     0  0.0000000000e+00  0.0000000000e+00  0.0000000000e+00  2.0000000000e+02  2.0000000000e+02 0. 9.
        2     1     3     0   101     0  5.1106980243e+01 -4.9277087969e+01  7.0425395077e+01  1.0000000000e+02  3.3000000000e-01 0. 9.
       -2     1     3     0     0   101 -5.1106980243e+01  4.9277087969e+01 -7.0425395077e+01  1.0000000000e+02  3.3000000000e-01 0. 9.
#pdf   11  -11  1.000000e+00  1.000000e+00  2.000000e+02  1.000000e+00  1.000000e+00
</event>
<event>
     5  9999  1.000000e+00  2.000000e+02  7.887732e-03  1.158210e-01
       11    -1     0     0     0     0  0.0000000000e+00  0.0000000000e+00  1.0000000000e+02  1.0000000000e+02  0.0000000000e+00 0. 9.
      -11    -1     0     0     0     0  0.0000000000e+00  0.0000000000e+00 -1.0000000000e+02  1.0000000000e+02  0.0000000000e+00 0. 9.
       23     2     1     2     0     0  0.0000000000e+00  0.0000000000e+00  0.0000000000e+00  2.0000000000e+02  2.0000000000e+02 0. 9.
        2     1     3     0   101     0 -4.7593247649e+01  4.2589240245e+01  7.6947582766e+01  1.0000000000e+02  3.3000000000e-01 0. 9.
       -2     1     3     0     0   101  4.7593247649e+01 -4.2589240245e+01 -7.6947582766e+01  1.0000000000e+02  3.3000000000e-01 0. 9.
#pdf   11  -11  1.000000e+00  1.000000e+00  2.000000e+02  1.000000e+00  1.000000e+00
</event>
<event>
     5  9999  1.000000e+00  2.000000e+02  7.887732e-03  1.158210e-01
       11    -1     0     0     0     0  0.0000000000e+00  0.0000000000e+00  1.0000000000e+02  1.0000000000e+02  0.0000000000e+00 0. 9.
      -11    -1     0     0     0     0  0.0000000000e+00  0.0000000000e+00 -1.0000000000e+02  1.0000000000e+02  0.0000000000e+00 0. 9.
       23     2     1     2     0     0  0.0000000000e+00  0.0000000000e+00  0.0000000000e+00  2.0000000000e+02  2.0000000000e+02 0. 9.
        2     1     3     0   101     0  1.8733584345e+01  9.7966387169e+01  7.1785028188e+00  1.0000000000e+02  3.3000000000e-01 0. 9.
       -2     1     3     0     0   101 -1.8733584345e+01 -9.7966387169e+01 -7.1785028188e+00  1.0000000000e+02  3.3000000000e-01 0. 9.
#pdf   11  -11  1.000000e+00  1.000000e+00  2.000000e+02  1.000000e+00  1.000000e+00
</event>
<event>
     5  9999  1.000000e+00  2.000000e+02  7.887732e-03  1.158210e-01
       11    -1     0     0     0     0  0.0000000000e+00  0.0000000000e+00  1.0000000000e+02  1.0000000000e+02  0.0000000000e+00 0. 9.
      -11    -1     0     0     0     0  0.0000000000e+00  0.0000000000e+00 -1.0000000000e+02  1.0000000000e+02  0.0000000000e+00 0. 9.
       23     2     1     2     0     0  0.0000000000e+00  0.0000000000e+00  0.0000000000e+00  2.0000000000e+02  2.0000000000e+02 0. 9.
        2     1     3     0   101     0 -6.6785810071e+01 -2.2957360933e+01  7.0799055446e+01  1.0000000000e+02  3.3000000000e-01 0. 9.
       -2     1     3     0     0   101  6.6785810071e+01  2.2957360933e+01 -7.0799055446e+01  1.0000000000e+02  3.3000000000e-01 0. 9.
#pdf   11  -11  1.000000e+00  1.000000e+00  2.000000e+02  1.000000e+00  1.000000e+00
</event>
<event>
     5  9999  1.000000e+00  2.000000e+02  7.887732e-03  1.158210e-01
       11    -1     0     0     0     0  0.0000000000e+00  0.0000000000e+00  1.0000000000e+02  1.0000000000e+02  0.0000000000e+00 0. 9.
      -11    -1     0     0     0     0  0.0000000000e+00  0.0000000000e+00 -1.0000000000e+02  1.0000000000e+02  0.0000000000e+00 0. 9.
       23     2     1     2     0     0  0.0000000000e+00  0.0000000000e+00  0.0000000000e+00  2.0000000000e+02  2.0000000000e+02 0. 9.
        2     1     3     0   101     0 -9.0397518162e+01 -9.3545547920e+00 -4.1721362811e+01  1.0000000000e+02  3.3000000000e-01 0. 9.
       -2     1     3     0     0   101  9.0397518162e+01  9.3545547920e+00  4.1721362811e+01  1.0000000000e+02  3.3000000000e-01 0. 9.
#pdf   11  -11  1.000000e+00  1.000000e+00  2.000000e+02  1.000000e+00  1.000000e+00
</event>
<event>
     5  9999  1.000000e+00  2.000000e+02  7.887732e-03  1.158210e-01
       11    -1     0     0     0     0  0.0000000000e+00  0.0000000000e+00  1.0000000000e+02  1.0000000000e+02  0.0000000000e+00 0. 9.
      -11    -1     0     0     0     0  0.0000000000e+00  0.0000000000e+00 -1.0000000000e+02  1.0000000000e+02  0.0000000000e+00 0. 9.
       23     2     1     2     0     0  0.0000000000e+00  0.0000000000e+00  0.0000000000e+00  2.0000000000e+02  2.0000000000e+02 0. 9.
        2     1     3     0   101     0 -3.0175496675e+01  1.8789051707e+01  9.3468187296e+01  1.0000000000e+02  3.3000000000e-01 0. 9.
       -2     1     3     0     0   101  3.0175496675e+01 -1.8789051707e+01 -9.3468187296e+01  1.0000000000e+02  3.3000000000e-01 0. 9.
#pdf   11  -11  1.000000e+00  1.000000e+00  2.000000e+02  1.000000e+00  1.000000e+00
</event>
<event>
     5  9999  1.000000e+00  2.000000e+02  7.887732e-03  1.158210e-01
       11    -1     0     0     0     0  0.0000000000e+00  0.0000000000e+00  1.0000000000e+02  1.0000000000e+02  0.0000000000e+00 0. 9.
      -11    -1     0     0     0     0  0.0000000000e+00  0.0000000000e+00 -1.0000000000e+02  1.0000000000e+02  0.0000000000e+00 0. 9.
       23     2     1     2     0     0  0.0000000000e+00  0.0000000000e+00  0.0000000000e+00  2.0000000000e+02  2.0000000000e+02 0. 9.
        2     1     3     0   101     0 -6.2638900156e+01  2.2804292613e+01  7.4540079995e+01  1.0000000000e+02  3.3000000000e-01 0. 9.
       -2     1     3     0     0   101  6.2638900156e+01 -2.2804292613e+01 -7.4540079995e+01  1.0000000000e+02  3.3000000000e-01 0. 9.
#pdf   11  -11  1.000000e+00  1.000000e+00  2.000000e+02  1.000000e+00  1.000000e+00
</event>
</LesHouchesEvents>
