<LesHouchesEvents version="1.0">
<!--
  File written by Pythia8::LHAup on 07 Jun 2015 at 18:23:29
-->
<init>
  11  -11  2.000000e+02  2.000000e+02  0  0  0  0  3  1
  1.232917e+00  5.067452e-09  1.000000e+00   9999
</init>
<event>
     5  9999  1.000000e+00  4.000000e+02  7.950764e-03  1.063124e-01
       11    -1     0     0     0     0  0.0000000000e+00  0.0000000000e+00  2.0000000000e+02  2.0000000000e+02  0.0000000000e+00 0. 9.
      -11    -1     0     0     0     0  0.0000000000e+00  0.0000000000e+00 -2.0000000000e+02  2.0000000000e+02  0.0000000000e+00 0. 9.
       23     2     1     2     0     0  0.0000000000e+00  0.0000000000e+00  0.0000000000e+00  4.0000000000e+02  4.0000000000e+02 0. 9.
        2     1     3     0   101     0 -3.1905456472e+01 -1.6773554247e+02  1.0414759113e+02  2.0000000000e+02  3.3000000000e-01 0. 9.
       -2     1     3     0     0   101  3.1905456472e+01  1.6773554247e+02 -1.0414759113e+02  2.0000000000e+02  3.3000000000e-01 0. 9.
#pdf   11  -11  1.000000e+00  1.000000e+00  4.000000e+02  1.000000e+00  1.000000e+00
</event>
<event>
     5  9999  1.000000e+00  4.000000e+02  7.950764e-03  1.063124e-01
       11    -1     0     0     0     0  0.0000000000e+00  0.0000000000e+00  2.0000000000e+02  2.0000000000e+02  0.0000000000e+00 0. 9.
      -11    -1     0     0     0     0  0.0000000000e+00  0.0000000000e+00 -2.0000000000e+02  2.0000000000e+02  0.0000000000e+00 0. 9.
       23     2     1     2     0     0  0.0000000000e+00  0.0000000000e+00  0.0000000000e+00  4.0000000000e+02  4.0000000000e+02 0. 9.
        2     1     3     0   101     0  9.1318450622e+01  1.3962175173e+01  1.7738627157e+02  2.0000000000e+02  3.3000000000e-01 0. 9.
       -2     1     3     0     0   101 -9.1318450622e+01 -1.3962175173e+01 -1.7738627157e+02  2.0000000000e+02  3.3000000000e-01 0. 9.
#pdf   11  -11  1.000000e+00  1.000000e+00  4.000000e+02  1.000000e+00  1.000000e+00
</event>
<event>
     5  9999  1.000000e+00  4.000000e+02  7.950764e-03  1.063124e-01
       11    -1     0     0     0     0  0.0000000000e+00  0.0000000000e+00  2.0000000000e+02  2.0000000000e+02  0.0000000000e+00 0. 9.
      -11    -1     0     0     0     0  0.0000000000e+00  0.0000000000e+00 -2.0000000000e+02  2.0000000000e+02  0.0000000000e+00 0. 9.
       23     2     1     2     0     0  0.0000000000e+00  0.0000000000e+00  0.0000000000e+00  4.0000000000e+02  4.0000000000e+02 0. 9.
        2     1     3     0   101     0 -1.8560303907e+02  6.5393795375e+01  3.5707905504e+01  2.0000000000e+02  3.3000000000e-01 0. 9.
       -2     1     3     0     0   101  1.8560303907e+02 -6.5393795375e+01 -3.5707905504e+01  2.0000000000e+02  3.3000000000e-01 0. 9.
#pdf   11  -11  1.000000e+00  1.000000e+00  4.000000e+02  1.000000e+00  1.000000e+00
</event>
<event>
     5  9999  1.000000e+00  4.000000e+02  7.950764e-03  1.063124e-01
       11    -1     0     0     0     0  0.0000000000e+00  0.0000000000e+00  2.0000000000e+02  2.0000000000e+02  0.0000000000e+00 0. 9.
      -11    -1     0     0     0     0  0.0000000000e+00  0.0000000000e+00 -2.0000000000e+02  2.0000000000e+02  0.0000000000e+00 0. 9.
       23     2     1     2     0     0  0.0000000000e+00  0.0000000000e+00  0.0000000000e+00  4.0000000000e+02  4.0000000000e+02 0. 9.
        2     1     3     0   101     0  8.6177584203e+01  1.4467092970e+02  1.0790568651e+02  2.0000000000e+02  3.3000000000e-01 0. 9.
       -2     1     3     0     0   101 -8.6177584203e+01 -1.4467092970e+02 -1.0790568651e+02  2.0000000000e+02  3.3000000000e-01 0. 9.
#pdf   11  -11  1.000000e+00  1.000000e+00  4.000000e+02  1.000000e+00  1.000000e+00
</event>
<event>
     5  9999  1.000000e+00  4.000000e+02  7.950764e-03  1.063124e-01
       11    -1     0     0     0     0  0.0000000000e+00  0.0000000000e+00  2.0000000000e+02  2.0000000000e+02  0.0000000000e+00 0. 9.
      -11    -1     0     0     0     0  0.0000000000e+00  0.0000000000e+00 -2.0000000000e+02  2.0000000000e+02  0.0000000000e+00 0. 9.
       23     2     1     2     0     0  0.0000000000e+00  0.0000000000e+00  0.0000000000e+00  4.0000000000e+02  4.0000000000e+02 0. 9.
        2     1     3     0   101     0 -9.9393939140e+00  9.5152010700e+00  1.9952583917e+02  2.0000000000e+02  3.3000000000e-01 0. 9.
       -2     1     3     0     0   101  9.9393939140e+00 -9.5152010700e+00 -1.9952583917e+02  2.0000000000e+02  3.3000000000e-01 0. 9.
#pdf   11  -11  1.000000e+00  1.000000e+00  4.000000e+02  1.000000e+00  1.000000e+00
</event>
<event>
     5  9999  1.000000e+00  4.000000e+02  7.950764e-03  1.063124e-01
       11    -1     0     0     0     0  0.0000000000e+00  0.0000000000e+00  2.0000000000e+02  2.0000000000e+02  0.0000000000e+00 0. 9.
      -11    -1     0     0     0     0  0.0000000000e+00  0.0000000000e+00 -2.0000000000e+02  2.0000000000e+02  0.0000000000e+00 0. 9.
       23     2     1     2     0     0  0.0000000000e+00  0.0000000000e+00  0.0000000000e+00  4.0000000000e+02  4.0000000000e+02 0. 9.
        2     1     3     0   101     0  1.8980205665e+02  4.6458528521e+01 -4.2622476677e+01  2.0000000000e+02  3.3000000000e-01 0. 9.
       -2     1     3     0     0   101 -1.8980205665e+02 -4.6458528521e+01  4.2622476677e+01  2.0000000000e+02  3.3000000000e-01 0. 9.
#pdf   11  -11  1.000000e+00  1.000000e+00  4.000000e+02  1.000000e+00  1.000000e+00
</event>
<event>
     5  9999  1.000000e+00  4.000000e+02  7.950764e-03  1.063124e-01
       11    -1     0     0     0     0  0.0000000000e+00  0.0000000000e+00  2.0000000000e+02  2.0000000000e+02  0.0000000000e+00 0. 9.
      -11    -1     0     0     0     0  0.0000000000e+00  0.0000000000e+00 -2.0000000000e+02  2.0000000000e+02  0.0000000000e+00 0. 9.
       23     2     1     2     0     0  0.0000000000e+00  0.0000000000e+00  0.0000000000e+00  4.0000000000e+02  4.0000000000e+02 0. 9.
        2     1     3     0   101     0  7.8167448740e+01  1.4937208968e+02 -1.0759981358e+02  2.0000000000e+02  3.3000000000e-01 0. 9.
       -2     1     3     0     0   101 -7.8167448740e+01 -1.4937208968e+02  1.0759981358e+02  2.0000000000e+02  3.3000000000e-01 0. 9.
#pdf   11  -11  1.000000e+00  1.000000e+00  4.000000e+02  1.000000e+00  1.000000e+00
</event>
<event>
     5  9999  1.000000e+00  4.000000e+02  7.950764e-03  1.063124e-01
       11    -1     0     0     0     0  0.0000000000e+00  0.0000000000e+00  2.0000000000e+02  2.0000000000e+02  0.0000000000e+00 0. 9.
      -11    -1     0     0     0     0  0.0000000000e+00  0.0000000000e+00 -2.0000000000e+02  2.0000000000e+02  0.0000000000e+00 0. 9.
       23     2     1     2     0     0  0.0000000000e+00  0.0000000000e+00  0.0000000000e+00  4.0000000000e+02  4.0000000000e+02 0. 9.
        2     1     3     0   101     0 -2.1359580514e+01 -1.5192621800e+02  1.2830465192e+02  2.0000000000e+02  3.3000000000e-01 0. 9.
       -2     1     3     0     0   101  2.1359580514e+01  1.5192621800e+02 -1.2830465192e+02  2.0000000000e+02  3.3000000000e-01 0. 9.
#pdf   11  -11  1.000000e+00  1.000000e+00  4.000000e+02  1.000000e+00  1.000000e+00
</event>
<event>
     5  9999  1.000000e+00  4.000000e+02  7.950764e-03  1.063124e-01
       11    -1     0     0     0     0  0.0000000000e+00  0.0000000000e+00  2.0000000000e+02  2.0000000000e+02  0.0000000000e+00 0. 9.
      -11    -1     0     0     0     0  0.0000000000e+00  0.0000000000e+00 -2.0000000000e+02  2.0000000000e+02  0.0000000000e+00 0. 9.
       23     2     1     2     0     0  0.0000000000e+00  0.0000000000e+00  0.0000000000e+00  4.0000000000e+02  4.0000000000e+02 0. 9.
        2     1     3     0   101     0 -1.5949457914e+02  1.1168475735e+02  4.5693383560e+01  2.0000000000e+02  3.3000000000e-01 0. 9.
       -2     1     3     0     0   101  1.5949457914e+02 -1.1168475735e+02 -4.5693383560e+01  2.0000000000e+02  3.3000000000e-01 0. 9.
#pdf   11  -11  1.000000e+00  1.000000e+00  4.000000e+02  1.000000e+00  1.000000e+00
</event>
<event>
     5  9999  1.000000e+00  4.000000e+02  7.950764e-03  1.063124e-01
       11    -1     0     0     0     0  0.0000000000e+00  0.0000000000e+00  2.0000000000e+02  2.0000000000e+02  0.0000000000e+00 0. 9.
      -11    -1     0     0     0     0  0.0000000000e+00  0.0000000000e+00 -2.0000000000e+02  2.0000000000e+02  0.0000000000e+00 0. 9.
       23     2     1     2     0     0  0.0000000000e+00  0.0000000000e+00  0.0000000000e+00  4.0000000000e+02  4.0000000000e+02 0. 9.
        2     1     3     0   101     0  5.1981562489e+01 -9.6685386830e+01  1.6718177004e+02  2.0000000000e+02  3.3000000000e-01 0. 9.
       -2     1     3     0     0   101 -5.1981562489e+01  9.6685386830e+01 -1.6718177004e+02  2.0000000000e+02  3.3000000000e-01 0. 9.
#pdf   11  -11  1.000000e+00  1.000000e+00  4.000000e+02  1.000000e+00  1.000000e+00
</event>
<event>
     5  9999  1.000000e+00  4.000000e+02  7.950764e-03  1.063124e-01
       11    -1     0     0     0     0  0.0000000000e+00  0.0000000000e+00  2.0000000000e+02  2.0000000000e+02  0.0000000000e+00 0. 9.
      -11    -1     0     0     0     0  0.0000000000e+00  0.0000000000e+00 -2.0000000000e+02  2.0000000000e+02  0.0000000000e+00 0. 9.
       23     2     1     2     0     0  0.0000000000e+00  0.0000000000e+00  0.0000000000e+00  4.0000000000e+02  4.0000000000e+02 0. 9.
        2     1     3     0   101     0  7.6411210097e+01  8.5466290271e+01  1.6388023462e+02  2.0000000000e+02  3.3000000000e-01 0. 9.
       -2     1     3     0     0   101 -7.6411210097e+01 -8.5466290271e+01 -1.6388023462e+02  2.0000000000e+02  3.3000000000e-01 0. 9.
#pdf   11  -11  1.000000e+00  1.000000e+00  4.000000e+02  1.000000e+00  1.000000e+00
</event>
<event>
     5  9999  1.000000e+00  4.000000e+02  7.950764e-03  1.063124e-01
       11    -1     0     0     0     0  0.0000000000e+00  0.0000000000e+00  2.0000000000e+02  2.0000000000e+02  0.0000000000e+00 0. 9.
      -11    -1     0     0     0     0  0.0000000000e+00  0.0000000000e+00 -2.0000000000e+02  2.0000000000e+02  0.0000000000e+00 0. 9.
       23     2     1     2     0     0  0.0000000000e+00  0.0000000000e+00  0.0000000000e+00  4.0000000000e+02  4.0000000000e+02 0. 9.
        2     1     3     0   101     0 -8.3587001863e+01  3.9440042967e+01  1.7736286880e+02  2.0000000000e+02  3.3000000000e-01 0. 9.
       -2     1     3     0     0   101  8.3587001863e+01 -3.9440042967e+01 -1.7736286880e+02  2.0000000000e+02  3.3000000000e-01 0. 9.
#pdf   11  -11  1.000000e+00  1.000000e+00  4.000000e+02  1.000000e+00  1.000000e+00
</event>
<event>
     5  9999  1.000000e+00  4.000000e+02  7.950764e-03  1.063124e-01
       11    -1     0     0     0     0  0.0000000000e+00  0.0000000000e+00  2.0000000000e+02  2.0000000000e+02  0.0000000000e+00 0. 9.
      -11    -1     0     0     0     0  0.0000000000e+00  0.0000000000e+00 -2.0000000000e+02  2.0000000000e+02  0.0000000000e+00 0. 9.
       23     2     1     2     0     0  0.0000000000e+00  0.0000000000e+00  0.0000000000e+00  4.0000000000e+02  4.0000000000e+02 0. 9.
        2     1     3     0   101     0 -1.8256988976e+02  1.7025898278e+01  7.9863917023e+01  2.0000000000e+02  3.3000000000e-01 0. 9.
       -2     1     3     0     0   101  1.8256988976e+02 -1.7025898278e+01 -7.9863917023e+01  2.0000000000e+02  3.3000000000e-01 0. 9.
#pdf   11  -11  1.000000e+00  1.000000e+00  4.000000e+02  1.000000e+00  1.000000e+00
</event>
<event>
     5  9999  1.000000e+00  4.000000e+02  7.950764e-03  1.063124e-01
       11    -1     0     0     0     0  0.0000000000e+00  0.0000000000e+00  2.0000000000e+02  2.0000000000e+02  0.0000000000e+00 0. 9.
      -11    -1     0     0     0     0  0.0000000000e+00  0.0000000000e+00 -2.0000000000e+02  2.0000000000e+02  0.0000000000e+00 0. 9.
       23     2     1     2     0     0  0.0000000000e+00  0.0000000000e+00  0.0000000000e+00  4.0000000000e+02  4.0000000000e+02 0. 9.
        2     1     3     0   101     0 -1.0905788648e+02 -8.8799896073e+01  1.4220002445e+02  2.0000000000e+02  3.3000000000e-01 0. 9.
       -2     1     3     0     0   101  1.0905788648e+02  8.8799896073e+01 -1.4220002445e+02  2.0000000000e+02  3.3000000000e-01 0. 9.
#pdf   11  -11  1.000000e+00  1.000000e+00  4.000000e+02  1.000000e+00  1.000000e+00
</event>
<event>
     5  9999  1.000000e+00  4.000000e+02  7.950764e-03  1.063124e-01
       11    -1     0     0     0     0  0.0000000000e+00  0.0000000000e+00  2.0000000000e+02  2.0000000000e+02  0.0000000000e+00 0. 9.
      -11    -1     0     0     0     0  0.0000000000e+00  0.0000000000e+00 -2.0000000000e+02  2.0000000000e+02  0.0000000000e+00 0. 9.
       23     2     1     2     0     0  0.0000000000e+00  0.0000000000e+00  0.0000000000e+00  4.0000000000e+02  4.0000000000e+02 0. 9.
        2     1     3     0   101     0  1.5939662084e+02  4.7155318182e+01  1.1121593560e+02  2.0000000000e+02  3.3000000000e-01 0. 9.
       -2     1     3     0     0   101 -1.5939662084e+02 -4.7155318182e+01 -1.1121593560e+02  2.0000000000e+02  3.3000000000e-01 0. 9.
#pdf   11  -11  1.000000e+00  1.000000e+00  4.000000e+02  1.000000e+00  1.000000e+00
</event>
<event>
     5  9999  1.000000e+00  4.000000e+02  7.950764e-03  1.063124e-01
       11    -1     0     0     0     0  0.0000000000e+00  0.0000000000e+00  2.0000000000e+02  2.0000000000e+02  0.0000000000e+00 0. 9.
      -11    -1     0     0     0     0  0.0000000000e+00  0.0000000000e+00 -2.0000000000e+02  2.0000000000e+02  0.0000000000e+00 0. 9.
       23     2     1     2     0     0  0.0000000000e+00  0.0000000000e+00  0.0000000000e+00  4.0000000000e+02  4.0000000000e+02 0. 9.
        2     1     3     0   101     0 -6.2028650505e+01 -9.0793803919e+01  1.6705933912e+02  2.0000000000e+02  3.3000000000e-01 0. 9.
       -2     1     3     0     0   101  6.2028650505e+01  9.0793803919e+01 -1.6705933912e+02  2.0000000000e+02  3.3000000000e-01 0. 9.
#pdf   11  -11  1.000000e+00  1.000000e+00  4.000000e+02  1.000000e+00  1.000000e+00
</event>
<event>
     5  9999  1.000000e+00  4.000000e+02  7.950764e-03  1.063124e-01
       11    -1     0     0     0     0  0.0000000000e+00  0.0000000000e+00  2.0000000000e+02  2.0000000000e+02  0.0000000000e+00 0. 9.
      -11    -1     0     0     0     0  0.0000000000e+00  0.0000000000e+00 -2.0000000000e+02  2.0000000000e+02  0.0000000000e+00 0. 9.
       23     2     1     2     0     0  0.0000000000e+00  0.0000000000e+00  0.0000000000e+00  4.0000000000e+02  4.0000000000e+02 0. 9.
        2     1     3     0   101     0  3.3592994531e+01 -5.9113178247e+01  1.8808783580e+02  2.0000000000e+02  3.3000000000e-01 0. 9.
       -2     1     3     0     0   101 -3.3592994531e+01  5.9113178247e+01 -1.8808783580e+02  2.0000000000e+02  3.3000000000e-01 0. 9.
#pdf   11  -11  1.000000e+00  1.000000e+00  4.000000e+02  1.000000e+00  1.000000e+00
</event>
<event>
     5  9999  1.000000e+00  4.000000e+02  7.950764e-03  1.063124e-01
       11    -1     0     0     0     0  0.0000000000e+00  0.0000000000e+00  2.0000000000e+02  2.0000000000e+02  0.0000000000e+00 0. 9.
      -11    -1     0     0     0     0  0.0000000000e+00  0.0000000000e+00 -2.0000000000e+02  2.0000000000e+02  0.0000000000e+00 0. 9.
       23     2     1     2     0     0  0.0000000000e+00  0.0000000000e+00  0.0000000000e+00  4.0000000000e+02  4.0000000000e+02 0. 9.
        2     1     3     0   101     0 -1.1518777049e+02  1.5078345810e+02  6.3214060092e+01  2.0000000000e+02  3.3000000000e-01 0. 9.
       -2     1     3     0     0   101  1.1518777049e+02 -1.5078345810e+02 -6.3214060092e+01  2.0000000000e+02  3.3000000000e-01 0. 9.
#pdf   11  -11  1.000000e+00  1.000000e+00  4.000000e+02  1.000000e+00  1.000000e+00
</event>
<event>
     5  9999  1.000000e+00  4.000000e+02  7.950764e-03  1.063124e-01
       11    -1     0     0     0     0  0.0000000000e+00  0.0000000000e+00  2.0000000000e+02  2.0000000000e+02  0.0000000000e+00 0. 9.
      -11    -1     0     0     0     0  0.0000000000e+00  0.0000000000e+00 -2.0000000000e+02  2.0000000000e+02  0.0000000000e+00 0. 9.
       23     2     1     2     0     0  0.0000000000e+00  0.0000000000e+00  0.0000000000e+00  4.0000000000e+02  4.0000000000e+02 0. 9.
        2     1     3     0   101     0 -2.2072980647e+01 -1.4860822830e+01 -1.9822167028e+02  2.0000000000e+02  3.3000000000e-01 0. 9.
       -2     1     3     0     0   101  2.2072980647e+01  1.4860822830e+01  1.9822167028e+02  2.0000000000e+02  3.3000000000e-01 0. 9.
#pdf   11  -11  1.000000e+00  1.000000e+00  4.000000e+02  1.000000e+00  1.000000e+00
</event>
<event>
     5  9999  1.000000e+00  4.000000e+02  7.950764e-03  1.063124e-01
       11    -1     0     0     0     0  0.0000000000e+00  0.0000000000e+00  2.0000000000e+02  2.0000000000e+02  0.0000000000e+00 0. 9.
      -11    -1     0     0     0     0  0.0000000000e+00  0.0000000000e+00 -2.0000000000e+02  2.0000000000e+02  0.0000000000e+00 0. 9.
       23     2     1     2     0     0  0.0000000000e+00  0.0000000000e+00  0.0000000000e+00  4.0000000000e+02  4.0000000000e+02 0. 9.
        2     1     3     0   101     0  1.8749531458e+02  5.7016912175e+01  3.9930813128e+01  2.0000000000e+02  3.3000000000e-01 0. 9.
       -2     1     3     0     0   101 -1.8749531458e+02 -5.7016912175e+01 -3.9930813128e+01  2.0000000000e+02  3.3000000000e-01 0. 9.
#pdf   11  -11  1.000000e+00  1.000000e+00  4.000000e+02  1.000000e+00  1.000000e+00
</event>
<event>
     5  9999  1.000000e+00  4.000000e+02  7.950764e-03  1.063124e-01
       11    -1     0     0     0     0  0.0000000000e+00  0.0000000000e+00  2.0000000000e+02  2.0000000000e+02  0.0000000000e+00 0. 9.
      -11    -1     0     0     0     0  0.0000000000e+00  0.0000000000e+00 -2.0000000000e+02  2.0000000000e+02  0.0000000000e+00 0. 9.
       23     2     1     2     0     0  0.0000000000e+00  0.0000000000e+00  0.0000000000e+00  4.0000000000e+02  4.0000000000e+02 0. 9.
        2     1     3     0   101     0  1.8881590694e+01 -1.4086451965e+02  1.4071447593e+02  2.0000000000e+02  3.3000000000e-01 0. 9.
       -2     1     3     0     0   101 -1.8881590694e+01  1.4086451965e+02 -1.4071447593e+02  2.0000000000e+02  3.3000000000e-01 0. 9.
#pdf   11  -11  1.000000e+00  1.000000e+00  4.000000e+02  1.000000e+00  1.000000e+00
</event>
<event>
     5  9999  1.000000e+00  4.000000e+02  7.950764e-03  1.063124e-01
       11    -1     0     0     0     0  0.0000000000e+00  0.0000000000e+00  2.0000000000e+02  2.0000000000e+02  0.0000000000e+00 0. 9.
      -11    -1     0     0     0     0  0.0000000000e+00  0.0000000000e+00 -2.0000000000e+02  2.0000000000e+02  0.0000000000e+00 0. 9.
       23     2     1     2     0     0  0.0000000000e+00  0.0000000000e+00  0.0000000000e+00  4.0000000000e+02  4.0000000000e+02 0. 9.
        2     1     3     0   101     0 -1.6884586154e+01 -8.8679664792e+01  1.7846769708e+02  2.0000000000e+02  3.3000000000e-01 0. 9.
       -2     1     3     0     0   101  1.6884586154e+01  8.8679664792e+01 -1.7846769708e+02  2.0000000000e+02  3.3000000000e-01 0. 9.
#pdf   11  -11  1.000000e+00  1.000000e+00  4.000000e+02  1.000000e+00  1.000000e+00
</event>
<event>
     5  9999  1.000000e+00  4.000000e+02  7.950764e-03  1.063124e-01
       11    -1     0     0     0     0  0.0000000000e+00  0.0000000000e+00  2.0000000000e+02  2.0000000000e+02  0.0000000000e+00 0. 9.
      -11    -1     0     0     0     0  0.0000000000e+00  0.0000000000e+00 -2.0000000000e+02  2.0000000000e+02  0.0000000000e+00 0. 9.
       23     2     1     2     0     0  0.0000000000e+00  0.0000000000e+00  0.0000000000e+00  4.0000000000e+02  4.0000000000e+02 0. 9.
        2     1     3     0   101     0  1.1514725527e+02 -4.9831690649e+01  1.5574916793e+02  2.0000000000e+02  3.3000000000e-01 0. 9.
       -2     1     3     0     0   101 -1.1514725527e+02  4.9831690649e+01 -1.5574916793e+02  2.0000000000e+02  3.3000000000e-01 0. 9.
#pdf   11  -11  1.000000e+00  1.000000e+00  4.000000e+02  1.000000e+00  1.000000e+00
</event>
<event>
     5  9999  1.000000e+00  4.000000e+02  7.950764e-03  1.063124e-01
       11    -1     0     0     0     0  0.0000000000e+00  0.0000000000e+00  2.0000000000e+02  2.0000000000e+02  0.0000000000e+00 0. 9.
      -11    -1     0     0     0     0  0.0000000000e+00  0.0000000000e+00 -2.0000000000e+02  2.0000000000e+02  0.0000000000e+00 0. 9.
       23     2     1     2     0     0  0.0000000000e+00  0.0000000000e+00  0.0000000000e+00  4.0000000000e+02  4.0000000000e+02 0. 9.
        2     1     3     0   101     0 -8.1132080254e+01 -1.2496485945e+02  1.3342136469e+02  2.0000000000e+02  3.3000000000e-01 0. 9.
       -2     1     3     0     0   101  8.1132080254e+01  1.2496485945e+02 -1.3342136469e+02  2.0000000000e+02  3.3000000000e-01 0. 9.
#pdf   11  -11  1.000000e+00  1.000000e+00  4.000000e+02  1.000000e+00  1.000000e+00
</event>
<event>
     5  9999  1.000000e+00  4.000000e+02  7.950764e-03  1.063124e-01
       11    -1     0     0     0     0  0.0000000000e+00  0.0000000000e+00  2.0000000000e+02  2.0000000000e+02  0.0000000000e+00 0. 9.
      -11    -1     0     0     0     0  0.0000000000e+00  0.0000000000e+00 -2.0000000000e+02  2.0000000000e+02  0.0000000000e+00 0. 9.
       23     2     1     2     0     0  0.0000000000e+00  0.0000000000e+00  0.0000000000e+00  4.0000000000e+02  4.0000000000e+02 0. 9.
        2     1     3     0   101     0  3.1951886292e+00  4.1383359592e+01 -1.9564534091e+02  2.0000000000e+02  3.3000000000e-01 0. 9.
       -2     1     3     0     0   101 -3.1951886292e+00 -4.1383359592e+01  1.9564534091e+02  2.0000000000e+02  3.3000000000e-01 0. 9.
#pdf   11  -11  1.000000e+00  1.000000e+00  4.000000e+02  1.000000e+00  1.000000e+00
</event>
<event>
     5  9999  1.000000e+00  4.000000e+02  7.950764e-03  1.063124e-01
       11    -1     0     0     0     0  0.0000000000e+00  0.0000000000e+00  2.0000000000e+02  2.0000000000e+02  0.0000000000e+00 0. 9.
      -11    -1     0     0     0     0  0.0000000000e+00  0.0000000000e+00 -2.0000000000e+02  2.0000000000e+02  0.0000000000e+00 0. 9.
       23     2     1     2     0     0  0.0000000000e+00  0.0000000000e+00  0.0000000000e+00  4.0000000000e+02  4.0000000000e+02 0. 9.
        2     1     3     0   101     0  1.4412987473e+02  1.2788186204e+02  5.3597571519e+01  2.0000000000e+02  3.3000000000e-01 0. 9.
       -2     1     3     0     0   101 -1.4412987473e+02 -1.2788186204e+02 -5.3597571519e+01  2.0000000000e+02  3.3000000000e-01 0. 9.
#pdf   11  -11  1.000000e+00  1.000000e+00  4.000000e+02  1.000000e+00  1.000000e+00
</event>
<event>
     5  9999  1.000000e+00  4.000000e+02  7.950764e-03  1.063124e-01
       11    -1     0     0     0     0  0.0000000000e+00  0.0000000000e+00  2.0000000000e+02  2.0000000000e+02  0.0000000000e+00 0. 9.
      -11    -1     0     0     0     0  0.0000000000e+00  0.0000000000e+00 -2.0000000000e+02  2.0000000000e+02  0.0000000000e+00 0. 9.
       23     2     1     2     0     0  0.0000000000e+00  0.0000000000e+00  0.0000000000e+00  4.0000000000e+02  4.0000000000e+02 0. 9.
        2     1     3     0   101     0  1.6967551829e+02  2.9989012456e+01  1.0154195550e+02  2.0000000000e+02  3.3000000000e-01 0. 9.
       -2     1     3     0     0   101 -1.6967551829e+02 -2.9989012456e+01 -1.0154195550e+02  2.0000000000e+02  3.3000000000e-01 0. 9.
#pdf   11  -11  1.000000e+00  1.000000e+00  4.000000e+02  1.000000e+00  1.000000e+00
</event>
<event>
     5  9999  1.000000e+00  4.000000e+02  7.950764e-03  1.063124e-01
       11    -1     0     0     0     0  0.0000000000e+00  0.0000000000e+00  2.0000000000e+02  2.0000000000e+02  0.0000000000e+00 0. 9.
      -11    -1     0     0     0     0  0.0000000000e+00  0.0000000000e+00 -2.0000000000e+02  2.0000000000e+02  0.0000000000e+00 0. 9.
       23     2     1     2     0     0  0.0000000000e+00  0.0000000000e+00  0.0000000000e+00  4.0000000000e+02  4.0000000000e+02 0. 9.
        2     1     3     0   101     0  5.7267260347e+01 -1.2891354216e+02  1.4178029003e+02  2.0000000000e+02  3.3000000000e-01 0. 9.
       -2     1     3     0     0   101 -5.7267260347e+01  1.2891354216e+02 -1.4178029003e+02  2.0000000000e+02  3.3000000000e-01 0. 9.
#pdf   11  -11  1.000000e+00  1.000000e+00  4.000000e+02  1.000000e+00  1.000000e+00
</event>
<event>
     5  9999  1.000000e+00  4.000000e+02  7.950764e-03  1.063124e-01
       11    -1     0     0     0     0  0.0000000000e+00  0.0000000000e+00  2.0000000000e+02  2.0000000000e+02  0.0000000000e+00 0. 9.
      -11    -1     0     0     0     0  0.0000000000e+00  0.0000000000e+00 -2.0000000000e+02  2.0000000000e+02  0.0000000000e+00 0. 9.
       23     2     1     2     0     0  0.0000000000e+00  0.0000000000e+00  0.0000000000e+00  4.0000000000e+02  4.0000000000e+02 0. 9.
        2     1     3     0   101     0 -3.3053330992e+01 -5.8133904861e+01  1.8848824238e+02  2.0000000000e+02  3.3000000000e-01 0. 9.
       -2     1     3     0     0   101  3.3053330992e+01  5.8133904861e+01 -1.8848824238e+02  2.0000000000e+02  3.3000000000e-01 0. 9.
#pdf   11  -11  1.000000e+00  1.000000e+00  4.000000e+02  1.000000e+00  1.000000e+00
</event>
<event>
     5  9999  1.000000e+00  4.000000e+02  7.950764e-03  1.063124e-01
       11    -1     0     0     0     0  0.0000000000e+00  0.0000000000e+00  2.0000000000e+02  2.0000000000e+02  0.0000000000e+00 0. 9.
      -11    -1     0     0     0     0  0.0000000000e+00  0.0000000000e+00 -2.0000000000e+02  2.0000000000e+02  0.0000000000e+00 0. 9.
       23     2     1     2     0     0  0.0000000000e+00  0.0000000000e+00  0.0000000000e+00  4.0000000000e+02  4.0000000000e+02 0. 9.
        2     1     3     0   101     0  4.9738551881e+00 -8.8071968988e+00  1.9974379877e+02  2.0000000000e+02  3.3000000000e-01 0. 9.
       -2     1     3     0     0   101 -4.9738551881e+00  8.8071968988e+00 -1.9974379877e+02  2.0000000000e+02  3.3000000000e-01 0. 9.
#pdf   11  -11  1.000000e+00  1.000000e+00  4.000000e+02  1.000000e+00  1.000000e+00
</event>
<event>
     5  9999  1.000000e+00  4.000000e+02  7.950764e-03  1.063124e-01
       11    -1     0     0     0     0  0.0000000000e+00  0.0000000000e+00  2.0000000000e+02  2.0000000000e+02  0.0000000000e+00 0. 9.
      -11    -1     0     0     0     0  0.0000000000e+00  0.0000000000e+00 -2.0000000000e+02  2.0000000000e+02  0.0000000000e+00 0. 9.
       23     2     1     2     0     0  0.0000000000e+00  0.0000000000e+00  0.0000000000e+00  4.0000000000e+02  4.0000000000e+02 0. 9.
        2     1     3     0   101     0 -1.4020951642e+02 -1.3897468901e+02  3.2050248382e+01  2.0000000000e+02  3.3000000000e-01 0. 9.
       -2     1     3     0     0   101  1.4020951642e+02  1.3897468901e+02 -3.2050248382e+01  2.0000000000e+02  3.3000000000e-01 0. 9.
#pdf   11  -11  1.000000e+00  1.000000e+00  4.000000e+02  1.000000e+00  1.000000e+00
</event>
<event>
     5  9999  1.000000e+00  4.000000e+02  7.950764e-03  1.063124e-01
       11    -1     0     0     0     0  0.0000000000e+00  0.0000000000e+00  2.0000000000e+02  2.0000000000e+02  0.0000000000e+00 0. 9.
      -11    -1     0     0     0     0  0.0000000000e+00  0.0000000000e+00 -2.0000000000e+02  2.0000000000e+02  0.0000000000e+00 0. 9.
       23     2     1     2     0     0  0.0000000000e+00  0.0000000000e+00  0.0000000000e+00  4.0000000000e+02  4.0000000000e+02 0. 9.
        2     1     3     0   101     0 -1.5241925242e+01 -3.2361894926e+01  1.9677470003e+02  2.0000000000e+02  3.3000000000e-01 0. 9.
       -2     1     3     0     0   101  1.5241925242e+01  3.2361894926e+01 -1.9677470003e+02  2.0000000000e+02  3.3000000000e-01 0. 9.
#pdf   11  -11  1.000000e+00  1.000000e+00  4.000000e+02  1.000000e+00  1.000000e+00
</event>
<event>
     5  9999  1.000000e+00  4.000000e+02  7.950764e-03  1.063124e-01
       11    -1     0     0     0     0  0.0000000000e+00  0.0000000000e+00  2.0000000000e+02  2.0000000000e+02  0.0000000000e+00 0. 9.
      -11    -1     0     0     0     0  0.0000000000e+00  0.0000000000e+00 -2.0000000000e+02  2.0000000000e+02  0.0000000000e+00 0. 9.
       23     2     1     2     0     0  0.0000000000e+00  0.0000000000e+00  0.0000000000e+00  4.0000000000e+02  4.0000000000e+02 0. 9.
        2     1     3     0   101     0 -6.7153345017e+01  1.8527050959e+02  3.4134405355e+01  2.0000000000e+02  3.3000000000e-01 0. 9.
       -2     1     3     0     0   101  6.7153345017e+01 -1.8527050959e+02 -3.4134405355e+01  2.0000000000e+02  3.3000000000e-01 0. 9.
#pdf   11  -11  1.000000e+00  1.000000e+00  4.000000e+02  1.000000e+00  1.000000e+00
</event>
<event>
     5  9999  1.000000e+00  4.000000e+02  7.950764e-03  1.063124e-01
       11    -1     0     0     0     0  0.0000000000e+00  0.0000000000e+00  2.0000000000e+02  2.0000000000e+02  0.0000000000e+00 0. 9.
      -11    -1     0     0     0     0  0.0000000000e+00  0.0000000000e+00 -2.0000000000e+02  2.0000000000e+02  0.0000000000e+00 0. 9.
       23     2     1     2     0     0  0.0000000000e+00  0.0000000000e+00  0.0000000000e+00  4.0000000000e+02  4.0000000000e+02 0. 9.
        2     1     3     0   101     0  1.6084475861e+02 -6.8045566307e-01  1.1886291141e+02  2.0000000000e+02  3.3000000000e-01 0. 9.
       -2     1     3     0     0   101 -1.6084475861e+02  6.8045566307e-01 -1.1886291141e+02  2.0000000000e+02  3.3000000000e-01 0. 9.
#pdf   11  -11  1.000000e+00  1.000000e+00  4.000000e+02  1.000000e+00  1.000000e+00
</event>
<event>
     5  9999  1.000000e+00  4.000000e+02  7.950764e-03  1.063124e-01
       11    -1     0     0     0     0  0.0000000000e+00  0.0000000000e+00  2.0000000000e+02  2.0000000000e+02  0.0000000000e+00 0. 9.
      -11    -1     0     0     0     0  0.0000000000e+00  0.0000000000e+00 -2.0000000000e+02  2.0000000000e+02  0.0000000000e+00 0. 9.
       23     2     1     2     0     0  0.0000000000e+00  0.0000000000e+00  0.0000000000e+00  4.0000000000e+02  4.0000000000e+02 0. 9.
        2     1     3     0   101     0 -7.2954550408e+01  1.0802161897e+02  1.5168669853e+02  2.0000000000e+02  3.3000000000e-01 0. 9.
       -2     1     3     0     0   101  7.2954550408e+01 -1.0802161897e+02 -1.5168669853e+02  2.0000000000e+02  3.3000000000e-01 0. 9.
#pdf   11  -11  1.000000e+00  1.000000e+00  4.000000e+02  1.000000e+00  1.000000e+00
</event>
<event>
     5  9999  1.000000e+00  4.000000e+02  7.950764e-03  1.063124e-01
       11    -1     0     0     0     0  0.0000000000e+00  0.0000000000e+00  2.0000000000e+02  2.0000000000e+02  0.0000000000e+00 0. 9.
      -11    -1     0     0     0     0  0.0000000000e+00  0.0000000000e+00 -2.0000000000e+02  2.0000000000e+02  0.0000000000e+00 0. 9.
       23     2     1     2     0     0  0.0000000000e+00  0.0000000000e+00  0.0000000000e+00  4.0000000000e+02  4.0000000000e+02 0. 9.
        2     1     3     0   101     0 -3.0625020954e+01 -6.6277509490e+01  1.8619691439e+02  2.0000000000e+02  3.3000000000e-01 0. 9.
       -2     1     3     0     0   101  3.0625020954e+01  6.6277509490e+01 -1.8619691439e+02  2.0000000000e+02  3.3000000000e-01 0. 9.
#pdf   11  -11  1.000000e+00  1.000000e+00  4.000000e+02  1.000000e+00  1.000000e+00
</event>
<event>
     5  9999  1.000000e+00  4.000000e+02  7.950764e-03  1.063124e-01
       11    -1     0     0     0     0  0.0000000000e+00  0.0000000000e+00  2.0000000000e+02  2.0000000000e+02  0.0000000000e+00 0. 9.
      -11    -1     0     0     0     0  0.0000000000e+00  0.0000000000e+00 -2.0000000000e+02  2.0000000000e+02  0.0000000000e+00 0. 9.
       23     2     1     2     0     0  0.0000000000e+00  0.0000000000e+00  0.0000000000e+00  4.0000000000e+02  4.0000000000e+02 0. 9.
        2     1     3     0   101     0 -1.9275457568e+02 -4.3570289077e+01  3.0776526169e+01  2.0000000000e+02  3.3000000000e-01 0. 9.
       -2     1     3     0     0   101  1.9275457568e+02  4.3570289077e+01 -3.0776526169e+01  2.0000000000e+02  3.3000000000e-01 0. 9.
#pdf   11  -11  1.000000e+00  1.000000e+00  4.000000e+02  1.000000e+00  1.000000e+00
</event>
<event>
     5  9999  1.000000e+00  4.000000e+02  7.950764e-03  1.063124e-01
       11    -1     0     0     0     0  0.0000000000e+00  0.0000000000e+00  2.0000000000e+02  2.0000000000e+02  0.0000000000e+00 0. 9.
      -11    -1     0     0     0     0  0.0000000000e+00  0.0000000000e+00 -2.0000000000e+02  2.0000000000e+02  0.0000000000e+00 0. 9.
       23     2     1     2     0     0  0.0000000000e+00  0.0000000000e+00  0.0000000000e+00  4.0000000000e+02  4.0000000000e+02 0. 9.
        2     1     3     0   101     0  1.0161939350e+01 -1.9625049227e+01  1.9877495700e+02  2.0000000000e+02  3.3000000000e-01 0. 9.
       -2     1     3     0     0   101 -1.0161939350e+01  1.9625049227e+01 -1.9877495700e+02  2.0000000000e+02  3.3000000000e-01 0. 9.
#pdf   11  -11  1.000000e+00  1.000000e+00  4.000000e+02  1.000000e+00  1.000000e+00
</event>
<event>
     5  9999  1.000000e+00  4.000000e+02  7.950764e-03  1.063124e-01
       11    -1     0     0     0     0  0.0000000000e+00  0.0000000000e+00  2.0000000000e+02  2.0000000000e+02  0.0000000000e+00 0. 9.
      -11    -1     0     0     0     0  0.0000000000e+00  0.0000000000e+00 -2.0000000000e+02  2.0000000000e+02  0.0000000000e+00 0. 9.
       23     2     1     2     0     0  0.0000000000e+00  0.0000000000e+00  0.0000000000e+00  4.0000000000e+02  4.0000000000e+02 0. 9.
        2     1     3     0   101     0 -8.3496347132e+01 -3.7696495848e+01 -1.7778420997e+02  2.0000000000e+02  3.3000000000e-01 0. 9.
       -2     1     3     0     0   101  8.3496347132e+01  3.7696495848e+01  1.7778420997e+02  2.0000000000e+02  3.3000000000e-01 0. 9.
#pdf   11  -11  1.000000e+00  1.000000e+00  4.000000e+02  1.000000e+00  1.000000e+00
</event>
<event>
     5  9999  1.000000e+00  4.000000e+02  7.950764e-03  1.063124e-01
       11    -1     0     0     0     0  0.0000000000e+00  0.0000000000e+00  2.0000000000e+02  2.0000000000e+02  0.0000000000e+00 0. 9.
      -11    -1     0     0     0     0  0.0000000000e+00  0.0000000000e+00 -2.0000000000e+02  2.0000000000e+02  0.0000000000e+00 0. 9.
       23     2     1     2     0     0  0.0000000000e+00  0.0000000000e+00  0.0000000000e+00  4.0000000000e+02  4.0000000000e+02 0. 9.
        2     1     3     0   101     0  9.3486405087e+01  1.6817690789e+02 -5.4559241354e+01  2.0000000000e+02  3.3000000000e-01 0. 9.
       -2     1     3     0     0   101 -9.3486405087e+01 -1.6817690789e+02  5.4559241354e+01  2.0000000000e+02  3.3000000000e-01 0. 9.
#pdf   11  -11  1.000000e+00  1.000000e+00  4.000000e+02  1.000000e+00  1.000000e+00
</event>
<event>
     5  9999  1.000000e+00  4.000000e+02  7.950764e-03  1.063124e-01
       11    -1     0     0     0     0  0.0000000000e+00  0.0000000000e+00  2.0000000000e+02  2.0000000000e+02  0.0000000000e+00 0. 9.
      -11    -1     0     0     0     0  0.0000000000e+00  0.0000000000e+00 -2.0000000000e+02  2.0000000000e+02  0.0000000000e+00 0. 9.
       23     2     1     2     0     0  0.0000000000e+00  0.0000000000e+00  0.0000000000e+00  4.0000000000e+02  4.0000000000e+02 0. 9.
        2     1     3     0   101     0 -7.2483324357e+01  1.8496222879e+02 -2.3130774137e+01  2.0000000000e+02  3.3000000000e-01 0. 9.
       -2     1     3     0     0   101  7.2483324357e+01 -1.8496222879e+02  2.3130774137e+01  2.0000000000e+02  3.3000000000e-01 0. 9.
#pdf   11  -11  1.000000e+00  1.000000e+00  4.000000e+02  1.000000e+00  1.000000e+00
</event>
<event>
     5  9999  1.000000e+00  4.000000e+02  7.950764e-03  1.063124e-01
       11    -1     0     0     0     0  0.0000000000e+00  0.0000000000e+00  2.0000000000e+02  2.0000000000e+02  0.0000000000e+00 0. 9.
      -11    -1     0     0     0     0  0.0000000000e+00  0.0000000000e+00 -2.0000000000e+02  2.0000000000e+02  0.0000000000e+00 0. 9.
       23     2     1     2     0     0  0.0000000000e+00  0.0000000000e+00  0.0000000000e+00  4.0000000000e+02  4.0000000000e+02 0. 9.
        2     1     3     0   101     0  3.8548014457e+01 -5.7774309009e+01  1.8755284829e+02  2.0000000000e+02  3.3000000000e-01 0. 9.
       -2     1     3     0     0   101 -3.8548014457e+01  5.7774309009e+01 -1.8755284829e+02  2.0000000000e+02  3.3000000000e-01 0. 9.
#pdf   11  -11  1.000000e+00  1.000000e+00  4.000000e+02  1.000000e+00  1.000000e+00
</event>
<event>
     5  9999  1.000000e+00  4.000000e+02  7.950764e-03  1.063124e-01
       11    -1     0     0     0     0  0.0000000000e+00  0.0000000000e+00  2.0000000000e+02  2.0000000000e+02  0.0000000000e+00 0. 9.
      -11    -1     0     0     0     0  0.0000000000e+00  0.0000000000e+00 -2.0000000000e+02  2.0000000000e+02  0.0000000000e+00 0. 9.
       23     2     1     2     0     0  0.0000000000e+00  0.0000000000e+00  0.0000000000e+00  4.0000000000e+02  4.0000000000e+02 0. 9.
        2     1     3     0   101     0  1.0451049788e+02 -5.2826226223e+01  1.6213215830e+02  2.0000000000e+02  3.3000000000e-01 0. 9.
       -2     1     3     0     0   101 -1.0451049788e+02  5.2826226223e+01 -1.6213215830e+02  2.0000000000e+02  3.3000000000e-01 0. 9.
#pdf   11  -11  1.000000e+00  1.000000e+00  4.000000e+02  1.000000e+00  1.000000e+00
</event>
<event>
     5  9999  1.000000e+00  4.000000e+02  7.950764e-03  1.063124e-01
       11    -1     0     0     0     0  0.0000000000e+00  0.0000000000e+00  2.0000000000e+02  2.0000000000e+02  0.0000000000e+00 0. 9.
      -11    -1     0     0     0     0  0.0000000000e+00  0.0000000000e+00 -2.0000000000e+02  2.0000000000e+02  0.0000000000e+00 0. 9.
       23     2     1     2     0     0  0.0000000000e+00  0.0000000000e+00  0.0000000000e+00  4.0000000000e+02  4.0000000000e+02 0. 9.
        2     1     3     0   101     0 -1.1766077060e+02  6.6919133868e+01  1.4723336471e+02  2.0000000000e+02  3.3000000000e-01 0. 9.
       -2     1     3     0     0   101  1.1766077060e+02 -6.6919133868e+01 -1.4723336471e+02  2.0000000000e+02  3.3000000000e-01 0. 9.
#pdf   11  -11  1.000000e+00  1.000000e+00  4.000000e+02  1.000000e+00  1.000000e+00
</event>
<event>
     5  9999  1.000000e+00  4.000000e+02  7.950764e-03  1.063124e-01
       11    -1     0     0     0     0  0.0000000000e+00  0.0000000000e+00  2.0000000000e+02  2.0000000000e+02  0.0000000000e+00 0. 9.
      -11    -1     0     0     0     0  0.0000000000e+00  0.0000000000e+00 -2.0000000000e+02  2.0000000000e+02  0.0000000000e+00 0. 9.
       23     2     1     2     0     0  0.0000000000e+00  0.0000000000e+00  0.0000000000e+00  4.0000000000e+02  4.0000000000e+02 0. 9.
        2     1     3     0   101     0  1.0555007814e+02  4.8473829786e+01  1.6281695222e+02  2.0000000000e+02  3.3000000000e-01 0. 9.
       -2     1     3     0     0   101 -1.0555007814e+02 -4.8473829786e+01 -1.6281695222e+02  2.0000000000e+02  3.3000000000e-01 0. 9.
#pdf   11  -11  1.000000e+00  1.000000e+00  4.000000e+02  1.000000e+00  1.000000e+00
</event>
<event>
     5  9999  1.000000e+00  4.000000e+02  7.950764e-03  1.063124e-01
       11    -1     0     0     0     0  0.0000000000e+00  0.0000000000e+00  2.0000000000e+02  2.0000000000e+02  0.0000000000e+00 0. 9.
      -11    -1     0     0     0     0  0.0000000000e+00  0.0000000000e+00 -2.0000000000e+02  2.0000000000e+02  0.0000000000e+00 0. 9.
       23     2     1     2     0     0  0.0000000000e+00  0.0000000000e+00  0.0000000000e+00  4.0000000000e+02  4.0000000000e+02 0. 9.
        2     1     3     0   101     0 -1.7695634853e+02  7.1826134277e+01  5.9391482967e+01  2.0000000000e+02  3.3000000000e-01 0. 9.
       -2     1     3     0     0   101  1.7695634853e+02 -7.1826134277e+01 -5.9391482967e+01  2.0000000000e+02  3.3000000000e-01 0. 9.
#pdf   11  -11  1.000000e+00  1.000000e+00  4.000000e+02  1.000000e+00  1.000000e+00
</event>
<event>
     5  9999  1.000000e+00  4.000000e+02  7.950764e-03  1.063124e-01
       11    -1     0     0     0     0  0.0000000000e+00  0.0000000000e+00  2.0000000000e+02  2.0000000000e+02  0.0000000000e+00 0. 9.
      -11    -1     0     0     0     0  0.0000000000e+00  0.0000000000e+00 -2.0000000000e+02  2.0000000000e+02  0.0000000000e+00 0. 9.
       23     2     1     2     0     0  0.0000000000e+00  0.0000000000e+00  0.0000000000e+00  4.0000000000e+02  4.0000000000e+02 0. 9.
        2     1     3     0   101     0  1.3790241465e+02 -1.2706569806e+02  6.9549432139e+01  2.0000000000e+02  3.3000000000e-01 0. 9.
       -2     1     3     0     0   101 -1.3790241465e+02  1.2706569806e+02 -6.9549432139e+01  2.0000000000e+02  3.3000000000e-01 0. 9.
#pdf   11  -11  1.000000e+00  1.000000e+00  4.000000e+02  1.000000e+00  1.000000e+00
</event>
<event>
     5  9999  1.000000e+00  4.000000e+02  7.950764e-03  1.063124e-01
       11    -1     0     0     0     0  0.0000000000e+00  0.0000000000e+00  2.0000000000e+02  2.0000000000e+02  0.0000000000e+00 0. 9.
      -11    -1     0     0     0     0  0.0000000000e+00  0.0000000000e+00 -2.0000000000e+02  2.0000000000e+02  0.0000000000e+00 0. 9.
       23     2     1     2     0     0  0.0000000000e+00  0.0000000000e+00  0.0000000000e+00  4.0000000000e+02  4.0000000000e+02 0. 9.
        2     1     3     0   101     0 -1.5123033226e+01 -7.0292190940e+01  1.8662848887e+02  2.0000000000e+02  3.3000000000e-01 0. 9.
       -2     1     3     0     0   101  1.5123033226e+01  7.0292190940e+01 -1.8662848887e+02  2.0000000000e+02  3.3000000000e-01 0. 9.
#pdf   11  -11  1.000000e+00  1.000000e+00  4.000000e+02  1.000000e+00  1.000000e+00
</event>
<event>
     5  9999  1.000000e+00  4.000000e+02  7.950764e-03  1.063124e-01
       11    -1     0     0     0     0  0.0000000000e+00  0.0000000000e+00  2.0000000000e+02  2.0000000000e+02  0.0000000000e+00 0. 9.
      -11    -1     0     0     0     0  0.0000000000e+00  0.0000000000e+00 -2.0000000000e+02  2.0000000000e+02  0.0000000000e+00 0. 9.
       23     2     1     2     0     0  0.0000000000e+00  0.0000000000e+00  0.0000000000e+00  4.0000000000e+02  4.0000000000e+02 0. 9.
        2     1     3     0   101     0  6.7450844852e+01  4.2448886901e+01  1.8343491115e+02  2.0000000000e+02  3.3000000000e-01 0. 9.
       -2     1     3     0     0   101 -6.7450844852e+01 -4.2448886901e+01 -1.8343491115e+02  2.0000000000e+02  3.3000000000e-01 0. 9.
#pdf   11  -11  1.000000e+00  1.000000e+00  4.000000e+02  1.000000e+00  1.000000e+00
</event>
<event>
     5  9999  1.000000e+00  4.000000e+02  7.950764e-03  1.063124e-01
       11    -1     0     0     0     0  0.0000000000e+00  0.0000000000e+00  2.0000000000e+02  2.0000000000e+02  0.0000000000e+00 0. 9.
      -11    -1     0     0     0     0  0.0000000000e+00  0.0000000000e+00 -2.0000000000e+02  2.0000000000e+02  0.0000000000e+00 0. 9.
       23     2     1     2     0     0  0.0000000000e+00  0.0000000000e+00  0.0000000000e+00  4.0000000000e+02  4.0000000000e+02 0. 9.
        2     1     3     0   101     0  2.6320493915e+01  1.9407117743e+02  4.0540113345e+01  2.0000000000e+02  3.3000000000e-01 0. 9.
       -2     1     3     0     0   101 -2.6320493915e+01 -1.9407117743e+02 -4.0540113345e+01  2.0000000000e+02  3.3000000000e-01 0. 9.
#pdf   11  -11  1.000000e+00  1.000000e+00  4.000000e+02  1.000000e+00  1.000000e+00
</event>
<event>
     5  9999  1.000000e+00  4.000000e+02  7.950764e-03  1.063124e-01
       11    -1     0     0     0     0  0.0000000000e+00  0.0000000000e+00  2.0000000000e+02  2.0000000000e+02  0.0000000000e+00 0. 9.
      -11    -1     0     0     0     0  0.0000000000e+00  0.0000000000e+00 -2.0000000000e+02  2.0000000000e+02  0.0000000000e+00 0. 9.
       23     2     1     2     0     0  0.0000000000e+00  0.0000000000e+00  0.0000000000e+00  4.0000000000e+02  4.0000000000e+02 0. 9.
        2     1     3     0   101     0 -2.7948683443e+01 -9.2564181594e+01  1.7507322605e+02  2.0000000000e+02  3.3000000000e-01 0. 9.
       -2     1     3     0     0   101  2.7948683443e+01  9.2564181594e+01 -1.7507322605e+02  2.0000000000e+02  3.3000000000e-01 0. 9.
#pdf   11  -11  1.000000e+00  1.000000e+00  4.000000e+02  1.000000e+00  1.000000e+00
</event>
<event>
     5  9999  1.000000e+00  4.000000e+02  7.950764e-03  1.063124e-01
       11    -1     0     0     0     0  0.0000000000e+00  0.0000000000e+00  2.0000000000e+02  2.0000000000e+02  0.0000000000e+00 0. 9.
      -11    -1     0     0     0     0  0.0000000000e+00  0.0000000000e+00 -2.0000000000e+02  2.0000000000e+02  0.0000000000e+00 0. 9.
       23     2     1     2     0     0  0.0000000000e+00  0.0000000000e+00  0.0000000000e+00  4.0000000000e+02  4.0000000000e+02 0. 9.
        2     1     3     0   101     0  4.4290521195e+01 -1.8490860985e+02  6.2024566383e+01  2.0000000000e+02  3.3000000000e-01 0. 9.
       -2     1     3     0     0   101 -4.4290521195e+01  1.8490860985e+02 -6.2024566383e+01  2.0000000000e+02  3.3000000000e-01 0. 9.
#pdf   11  -11  1.000000e+00  1.000000e+00  4.000000e+02  1.000000e+00  1.000000e+00
</event>
<event>
     5  9999  1.000000e+00  4.000000e+02  7.950764e-03  1.063124e-01
       11    -1     0     0     0     0  0.0000000000e+00  0.0000000000e+00  2.0000000000e+02  2.0000000000e+02  0.0000000000e+00 0. 9.
      -11    -1     0     0     0     0  0.0000000000e+00  0.0000000000e+00 -2.0000000000e+02  2.0000000000e+02  0.0000000000e+00 0. 9.
       23     2     1     2     0     0  0.0000000000e+00  0.0000000000e+00  0.0000000000e+00  4.0000000000e+02  4.0000000000e+02 0. 9.
        2     1     3     0   101     0 -1.6432108411e+02 -1.2426562232e+01  1.1333160621e+02  2.0000000000e+02  3.3000000000e-01 0. 9.
       -2     1     3     0     0   101  1.6432108411e+02  1.2426562232e+01 -1.1333160621e+02  2.0000000000e+02  3.3000000000e-01 0. 9.
#pdf   11  -11  1.000000e+00  1.000000e+00  4.000000e+02  1.000000e+00  1.000000e+00
</event>
<event>
     5  9999  1.000000e+00  4.000000e+02  7.950764e-03  1.063124e-01
       11    -1     0     0     0     0  0.0000000000e+00  0.0000000000e+00  2.0000000000e+02  2.0000000000e+02  0.0000000000e+00 0. 9.
      -11    -1     0     0     0     0  0.0000000000e+00  0.0000000000e+00 -2.0000000000e+02  2.0000000000e+02  0.0000000000e+00 0. 9.
       23     2     1     2     0     0  0.0000000000e+00  0.0000000000e+00  0.0000000000e+00  4.0000000000e+02  4.0000000000e+02 0. 9.
        2     1     3     0   101     0 -2.1499377736e+01  1.8797891830e+02  6.4819704813e+01  2.0000000000e+02  3.3000000000e-01 0. 9.
       -2     1     3     0     0   101  2.1499377736e+01 -1.8797891830e+02 -6.4819704813e+01  2.0000000000e+02  3.3000000000e-01 0. 9.
#pdf   11  -11  1.000000e+00  1.000000e+00  4.000000e+02  1.000000e+00  1.000000e+00
</event>
<event>
     5  9999  1.000000e+00  4.000000e+02  7.950764e-03  1.063124e-01
       11    -1     0     0     0     0  0.0000000000e+00  0.0000000000e+00  2.0000000000e+02  2.0000000000e+02  0.0000000000e+00 0. 9.
      -11    -1     0     0     0     0  0.0000000000e+00  0.0000000000e+00 -2.0000000000e+02  2.0000000000e+02  0.0000000000e+00 0. 9.
       23     2     1     2     0     0  0.0000000000e+00  0.0000000000e+00  0.0000000000e+00  4.0000000000e+02  4.0000000000e+02 0. 9.
        2     1     3     0   101     0 -1.1026481029e+02  1.2487754745e+02  1.1066689141e+02  2.0000000000e+02  3.3000000000e-01 0. 9.
       -2     1     3     0     0   101  1.1026481029e+02 -1.2487754745e+02 -1.1066689141e+02  2.0000000000e+02  3.3000000000e-01 0. 9.
#pdf   11  -11  1.000000e+00  1.000000e+00  4.000000e+02  1.000000e+00  1.000000e+00
</event>
<event>
     5  9999  1.000000e+00  4.000000e+02  7.950764e-03  1.063124e-01
       11    -1     0     0     0     0  0.0000000000e+00  0.0000000000e+00  2.0000000000e+02  2.0000000000e+02  0.0000000000e+00 0. 9.
      -11    -1     0     0     0     0  0.0000000000e+00  0.0000000000e+00 -2.0000000000e+02  2.0000000000e+02  0.0000000000e+00 0. 9.
       23     2     1     2     0     0  0.0000000000e+00  0.0000000000e+00  0.0000000000e+00  4.0000000000e+02  4.0000000000e+02 0. 9.
        2     1     3     0   101     0  8.7949495939e+01  1.3344686024e+02  1.2023607094e+02  2.0000000000e+02  3.3000000000e-01 0. 9.
       -2     1     3     0     0   101 -8.7949495939e+01 -1.3344686024e+02 -1.2023607094e+02  2.0000000000e+02  3.3000000000e-01 0. 9.
#pdf   11  -11  1.000000e+00  1.000000e+00  4.000000e+02  1.000000e+00  1.000000e+00
</event>
<event>
     5  9999  1.000000e+00  4.000000e+02  7.950764e-03  1.063124e-01
       11    -1     0     0     0     0  0.0000000000e+00  0.0000000000e+00  2.0000000000e+02  2.0000000000e+02  0.0000000000e+00 0. 9.
      -11    -1     0     0     0     0  0.0000000000e+00  0.0000000000e+00 -2.0000000000e+02  2.0000000000e+02  0.0000000000e+00 0. 9.
       23     2     1     2     0     0  0.0000000000e+00  0.0000000000e+00  0.0000000000e+00  4.0000000000e+02  4.0000000000e+02 0. 9.
        2     1     3     0   101     0 -2.8987084380e-01 -1.1299746166e+02  1.6501933442e+02  2.0000000000e+02  3.3000000000e-01 0. 9.
       -2     1     3     0     0   101  2.8987084380e-01  1.1299746166e+02 -1.6501933442e+02  2.0000000000e+02  3.3000000000e-01 0. 9.
#pdf   11  -11  1.000000e+00  1.000000e+00  4.000000e+02  1.000000e+00  1.000000e+00
</event>
<event>
     5  9999  1.000000e+00  4.000000e+02  7.950764e-03  1.063124e-01
       11    -1     0     0     0     0  0.0000000000e+00  0.0000000000e+00  2.0000000000e+02  2.0000000000e+02  0.0000000000e+00 0. 9.
      -11    -1     0     0     0     0  0.0000000000e+00  0.0000000000e+00 -2.0000000000e+02  2.0000000000e+02  0.0000000000e+00 0. 9.
       23     2     1     2     0     0  0.0000000000e+00  0.0000000000e+00  0.0000000000e+00  4.0000000000e+02  4.0000000000e+02 0. 9.
        2     1     3     0   101     0 -5.5339734616e+01  3.2607569828e+01  1.8940472872e+02  2.0000000000e+02  3.3000000000e-01 0. 9.
       -2     1     3     0     0   101  5.5339734616e+01 -3.2607569828e+01 -1.8940472872e+02  2.0000000000e+02  3.3000000000e-01 0. 9.
#pdf   11  -11  1.000000e+00  1.000000e+00  4.000000e+02  1.000000e+00  1.000000e+00
</event>
<event>
     5  9999  1.000000e+00  4.000000e+02  7.950764e-03  1.063124e-01
       11    -1     0     0     0     0  0.0000000000e+00  0.0000000000e+00  2.0000000000e+02  2.0000000000e+02  0.0000000000e+00 0. 9.
      -11    -1     0     0     0     0  0.0000000000e+00  0.0000000000e+00 -2.0000000000e+02  2.0000000000e+02  0.0000000000e+00 0. 9.
       23     2     1     2     0     0  0.0000000000e+00  0.0000000000e+00  0.0000000000e+00  4.0000000000e+02  4.0000000000e+02 0. 9.
        2     1     3     0   101     0 -5.2711388288e+01 -1.8865499027e+02 -4.0381868360e+01  2.0000000000e+02  3.3000000000e-01 0. 9.
       -2     1     3     0     0   101  5.2711388288e+01  1.8865499027e+02  4.0381868360e+01  2.0000000000e+02  3.3000000000e-01 0. 9.
#pdf   11  -11  1.000000e+00  1.000000e+00  4.000000e+02  1.000000e+00  1.000000e+00
</event>
<event>
     5  9999  1.000000e+00  4.000000e+02  7.950764e-03  1.063124e-01
       11    -1     0     0     0     0  0.0000000000e+00  0.0000000000e+00  2.0000000000e+02  2.0000000000e+02  0.0000000000e+00 0. 9.
      -11    -1     0     0     0     0  0.0000000000e+00  0.0000000000e+00 -2.0000000000e+02  2.0000000000e+02  0.0000000000e+00 0. 9.
       23     2     1     2     0     0  0.0000000000e+00  0.0000000000e+00  0.0000000000e+00  4.0000000000e+02  4.0000000000e+02 0. 9.
        2     1     3     0   101     0  1.7491151514e+02 -5.3465096296e+01  8.0915613147e+01  2.0000000000e+02  3.3000000000e-01 0. 9.
       -2     1     3     0     0   101 -1.7491151514e+02  5.3465096296e+01 -8.0915613147e+01  2.0000000000e+02  3.3000000000e-01 0. 9.
#pdf   11  -11  1.000000e+00  1.000000e+00  4.000000e+02  1.000000e+00  1.000000e+00
</event>
<event>
     5  9999  1.000000e+00  4.000000e+02  7.950764e-03  1.063124e-01
       11    -1     0     0     0     0  0.0000000000e+00  0.0000000000e+00  2.0000000000e+02  2.0000000000e+02  0.0000000000e+00 0. 9.
      -11    -1     0     0     0     0  0.0000000000e+00  0.0000000000e+00 -2.0000000000e+02  2.0000000000e+02  0.0000000000e+00 0. 9.
       23     2     1     2     0     0  0.0000000000e+00  0.0000000000e+00  0.0000000000e+00  4.0000000000e+02  4.0000000000e+02 0. 9.
        2     1     3     0   101     0  5.1940889579e+00  1.2539238123e+02  1.5572303384e+02  2.0000000000e+02  3.3000000000e-01 0. 9.
       -2     1     3     0     0   101 -5.1940889579e+00 -1.2539238123e+02 -1.5572303384e+02  2.0000000000e+02  3.3000000000e-01 0. 9.
#pdf   11  -11  1.000000e+00  1.000000e+00  4.000000e+02  1.000000e+00  1.000000e+00
</event>
<event>
     5  9999  1.000000e+00  4.000000e+02  7.950764e-03  1.063124e-01
       11    -1     0     0     0     0  0.0000000000e+00  0.0000000000e+00  2.0000000000e+02  2.0000000000e+02  0.0000000000e+00 0. 9.
      -11    -1     0     0     0     0  0.0000000000e+00  0.0000000000e+00 -2.0000000000e+02  2.0000000000e+02  0.0000000000e+00 0. 9.
       23     2     1     2     0     0  0.0000000000e+00  0.0000000000e+00  0.0000000000e+00  4.0000000000e+02  4.0000000000e+02 0. 9.
        2     1     3     0   101     0 -1.1268030797e+02 -1.5209814746e+02 -6.4569287091e+01  2.0000000000e+02  3.3000000000e-01 0. 9.
       -2     1     3     0     0   101  1.1268030797e+02  1.5209814746e+02  6.4569287091e+01  2.0000000000e+02  3.3000000000e-01 0. 9.
#pdf   11  -11  1.000000e+00  1.000000e+00  4.000000e+02  1.000000e+00  1.000000e+00
</event>
<event>
     5  9999  1.000000e+00  4.000000e+02  7.950764e-03  1.063124e-01
       11    -1     0     0     0     0  0.0000000000e+00  0.0000000000e+00  2.0000000000e+02  2.0000000000e+02  0.0000000000e+00 0. 9.
      -11    -1     0     0     0     0  0.0000000000e+00  0.0000000000e+00 -2.0000000000e+02  2.0000000000e+02  0.0000000000e+00 0. 9.
       23     2     1     2     0     0  0.0000000000e+00  0.0000000000e+00  0.0000000000e+00  4.0000000000e+02  4.0000000000e+02 0. 9.
        2     1     3     0   101     0 -1.5059968517e+02  5.7556008016e+01  1.1835088453e+02  2.0000000000e+02  3.3000000000e-01 0. 9.
       -2     1     3     0     0   101  1.5059968517e+02 -5.7556008016e+01 -1.1835088453e+02  2.0000000000e+02  3.3000000000e-01 0. 9.
#pdf   11  -11  1.000000e+00  1.000000e+00  4.000000e+02  1.000000e+00  1.000000e+00
</event>
<event>
     5  9999  1.000000e+00  4.000000e+02  7.950764e-03  1.063124e-01
       11    -1     0     0     0     0  0.0000000000e+00  0.0000000000e+00  2.0000000000e+02  2.0000000000e+02  0.0000000000e+00 0. 9.
      -11    -1     0     0     0     0  0.0000000000e+00  0.0000000000e+00 -2.0000000000e+02  2.0000000000e+02  0.0000000000e+00 0. 9.
       23     2     1     2     0     0  0.0000000000e+00  0.0000000000e+00  0.0000000000e+00  4.0000000000e+02  4.0000000000e+02 0. 9.
        2     1     3     0   101     0  3.7911751610e+01 -6.8146011563e+01  1.8417033230e+02  2.0000000000e+02  3.3000000000e-01 0. 9.
       -2     1     3     0     0   101 -3.7911751610e+01  6.8146011563e+01 -1.8417033230e+02  2.0000000000e+02  3.3000000000e-01 0. 9.
#pdf   11  -11  1.000000e+00  1.000000e+00  4.000000e+02  1.000000e+00  1.000000e+00
</event>
<event>
     5  9999  1.000000e+00  4.000000e+02  7.950764e-03  1.063124e-01
       11    -1     0     0     0     0  0.0000000000e+00  0.0000000000e+00  2.0000000000e+02  2.0000000000e+02  0.0000000000e+00 0. 9.
      -11    -1     0     0     0     0  0.0000000000e+00  0.0000000000e+00 -2.0000000000e+02  2.0000000000e+02  0.0000000000e+00 0. 9.
       23     2     1     2     0     0  0.0000000000e+00  0.0000000000e+00  0.0000000000e+00  4.0000000000e+02  4.0000000000e+02 0. 9.
        2     1     3     0   101     0  8.6920069047e+00 -1.9885299383e+02  1.9540393009e+01  2.0000000000e+02  3.3000000000e-01 0. 9.
       -2     1     3     0     0   101 -8.6920069047e+00  1.9885299383e+02 -1.9540393009e+01  2.0000000000e+02  3.3000000000e-01 0. 9.
#pdf   11  -11  1.000000e+00  1.000000e+00  4.000000e+02  1.000000e+00  1.000000e+00
</event>
<event>
     5  9999  1.000000e+00  4.000000e+02  7.950764e-03  1.063124e-01
       11    -1     0     0     0     0  0.0000000000e+00  0.0000000000e+00  2.0000000000e+02  2.0000000000e+02  0.0000000000e+00 0. 9.
      -11    -1     0     0     0     0  0.0000000000e+00  0.0000000000e+00 -2.0000000000e+02  2.0000000000e+02  0.0000000000e+00 0. 9.
       23     2     1     2     0     0  0.0000000000e+00  0.0000000000e+00  0.0000000000e+00  4.0000000000e+02  4.0000000000e+02 0. 9.
        2     1     3     0   101     0 -6.4584607438e+01  4.4525880311e+01  1.8397327405e+02  2.0000000000e+02  3.3000000000e-01 0. 9.
       -2     1     3     0     0   101  6.4584607438e+01 -4.4525880311e+01 -1.8397327405e+02  2.0000000000e+02  3.3000000000e-01 0. 9.
#pdf   11  -11  1.000000e+00  1.000000e+00  4.000000e+02  1.000000e+00  1.000000e+00
</event>
<event>
     5  9999  1.000000e+00  4.000000e+02  7.950764e-03  1.063124e-01
       11    -1     0     0     0     0  0.0000000000e+00  0.0000000000e+00  2.0000000000e+02  2.0000000000e+02  0.0000000000e+00 0. 9.
      -11    -1     0     0     0     0  0.0000000000e+00  0.0000000000e+00 -2.0000000000e+02  2.0000000000e+02  0.0000000000e+00 0. 9.
       23     2     1     2     0     0  0.0000000000e+00  0.0000000000e+00  0.0000000000e+00  4.0000000000e+02  4.0000000000e+02 0. 9.
        2     1     3     0   101     0  5.4850017651e+01 -1.8602932367e+02  4.8830906200e+01  2.0000000000e+02  3.3000000000e-01 0. 9.
       -2     1     3     0     0   101 -5.4850017651e+01  1.8602932367e+02 -4.8830906200e+01  2.0000000000e+02  3.3000000000e-01 0. 9.
#pdf   11  -11  1.000000e+00  1.000000e+00  4.000000e+02  1.000000e+00  1.000000e+00
</event>
<event>
     5  9999  1.000000e+00  4.000000e+02  7.950764e-03  1.063124e-01
       11    -1     0     0     0     0  0.0000000000e+00  0.0000000000e+00  2.0000000000e+02  2.0000000000e+02  0.0000000000e+00 0. 9.
      -11    -1     0     0     0     0  0.0000000000e+00  0.0000000000e+00 -2.0000000000e+02  2.0000000000e+02  0.0000000000e+00 0. 9.
       23     2     1     2     0     0  0.0000000000e+00  0.0000000000e+00  0.0000000000e+00  4.0000000000e+02  4.0000000000e+02 0. 9.
        2     1     3     0   101     0 -1.0863128910e+02 -7.0952410568e+01  1.5220016282e+02  2.0000000000e+02  3.3000000000e-01 0. 9.
       -2     1     3     0     0   101  1.0863128910e+02  7.0952410568e+01 -1.5220016282e+02  2.0000000000e+02  3.3000000000e-01 0. 9.
#pdf   11  -11  1.000000e+00  1.000000e+00  4.000000e+02  1.000000e+00  1.000000e+00
</event>
<event>
     5  9999  1.000000e+00  4.000000e+02  7.950764e-03  1.063124e-01
       11    -1     0     0     0     0  0.0000000000e+00  0.0000000000e+00  2.0000000000e+02  2.0000000000e+02  0.0000000000e+00 0. 9.
      -11    -1     0     0     0     0  0.0000000000e+00  0.0000000000e+00 -2.0000000000e+02  2.0000000000e+02  0.0000000000e+00 0. 9.
       23     2     1     2     0     0  0.0000000000e+00  0.0000000000e+00  0.0000000000e+00  4.0000000000e+02  4.0000000000e+02 0. 9.
        2     1     3     0   101     0 -5.4381432375e+01  4.3094657120e+01  1.8757772107e+02  2.0000000000e+02  3.3000000000e-01 0. 9.
       -2     1     3     0     0   101  5.4381432375e+01 -4.3094657120e+01 -1.8757772107e+02  2.0000000000e+02  3.3000000000e-01 0. 9.
#pdf   11  -11  1.000000e+00  1.000000e+00  4.000000e+02  1.000000e+00  1.000000e+00
</event>
<event>
     5  9999  1.000000e+00  4.000000e+02  7.950764e-03  1.063124e-01
       11    -1     0     0     0     0  0.0000000000e+00  0.0000000000e+00  2.0000000000e+02  2.0000000000e+02  0.0000000000e+00 0. 9.
      -11    -1     0     0     0     0  0.0000000000e+00  0.0000000000e+00 -2.0000000000e+02  2.0000000000e+02  0.0000000000e+00 0. 9.
       23     2     1     2     0     0  0.0000000000e+00  0.0000000000e+00  0.0000000000e+00  4.0000000000e+02  4.0000000000e+02 0. 9.
        2     1     3     0   101     0  1.9688398269e+02 -1.9807945756e+01  2.9055700702e+01  2.0000000000e+02  3.3000000000e-01 0. 9.
       -2     1     3     0     0   101 -1.9688398269e+02  1.9807945756e+01 -2.9055700702e+01  2.0000000000e+02  3.3000000000e-01 0. 9.
#pdf   11  -11  1.000000e+00  1.000000e+00  4.000000e+02  1.000000e+00  1.000000e+00
</event>
<event>
     5  9999  1.000000e+00  4.000000e+02  7.950764e-03  1.063124e-01
       11    -1     0     0     0     0  0.0000000000e+00  0.0000000000e+00  2.0000000000e+02  2.0000000000e+02  0.0000000000e+00 0. 9.
      -11    -1     0     0     0     0  0.0000000000e+00  0.0000000000e+00 -2.0000000000e+02  2.0000000000e+02  0.0000000000e+00 0. 9.
       23     2     1     2     0     0  0.0000000000e+00  0.0000000000e+00  0.0000000000e+00  4.0000000000e+02  4.0000000000e+02 0. 9.
        2     1     3     0   101     0  9.2320662066e+01  1.0003885711e+02  1.4652308188e+02  2.0000000000e+02  3.3000000000e-01 0. 9.
       -2     1     3     0     0   101 -9.2320662066e+01 -1.0003885711e+02 -1.4652308188e+02  2.0000000000e+02  3.3000000000e-01 0. 9.
#pdf   11  -11  1.000000e+00  1.000000e+00  4.000000e+02  1.000000e+00  1.000000e+00
</event>
<event>
     5  9999  1.000000e+00  4.000000e+02  7.950764e-03  1.063124e-01
       11    -1     0     0     0     0  0.0000000000e+00  0.0000000000e+00  2.0000000000e+02  2.0000000000e+02  0.0000000000e+00 0. 9.
      -11    -1     0     0     0     0  0.0000000000e+00  0.0000000000e+00 -2.0000000000e+02  2.0000000000e+02  0.0000000000e+00 0. 9.
       23     2     1     2     0     0  0.0000000000e+00  0.0000000000e+00  0.0000000000e+00  4.0000000000e+02  4.0000000000e+02 0. 9.
        2     1     3     0   101     0  1.3970302420e+02  8.8661390689e+01 -1.1234818170e+02  2.0000000000e+02  3.3000000000e-01 0. 9.
       -2     1     3     0     0   101 -1.3970302420e+02 -8.8661390689e+01  1.1234818170e+02  2.0000000000e+02  3.3000000000e-01 0. 9.
#pdf   11  -11  1.000000e+00  1.000000e+00  4.000000e+02  1.000000e+00  1.000000e+00
</event>
<event>
     5  9999  1.000000e+00  4.000000e+02  7.950764e-03  1.063124e-01
       11    -1     0     0     0     0  0.0000000000e+00  0.0000000000e+00  2.0000000000e+02  2.0000000000e+02  0.0000000000e+00 0. 9.
      -11    -1     0     0     0     0  0.0000000000e+00  0.0000000000e+00 -2.0000000000e+02  2.0000000000e+02  0.0000000000e+00 0. 9.
       23     2     1     2     0     0  0.0000000000e+00  0.0000000000e+00  0.0000000000e+00  4.0000000000e+02  4.0000000000e+02 0. 9.
        2     1     3     0   101     0  7.0764615867e+01 -1.6259780304e+02  9.2488997660e+01  2.0000000000e+02  3.3000000000e-01 0. 9.
       -2     1     3     0     0   101 -7.0764615867e+01  1.6259780304e+02 -9.2488997660e+01  2.0000000000e+02  3.3000000000e-01 0. 9.
#pdf   11  -11  1.000000e+00  1.000000e+00  4.000000e+02  1.000000e+00  1.000000e+00
</event>
<event>
     5  9999  1.000000e+00  4.000000e+02  7.950764e-03  1.063124e-01
       11    -1     0     0     0     0  0.0000000000e+00  0.0000000000e+00  2.0000000000e+02  2.0000000000e+02  0.0000000000e+00 0. 9.
      -11    -1     0     0     0     0  0.0000000000e+00  0.0000000000e+00 -2.0000000000e+02  2.0000000000e+02  0.0000000000e+00 0. 9.
       23     2     1     2     0     0  0.0000000000e+00  0.0000000000e+00  0.0000000000e+00  4.0000000000e+02  4.0000000000e+02 0. 9.
        2     1     3     0   101     0  4.5227147278e+01 -1.0448708180e+02  1.6442884779e+02  2.0000000000e+02  3.3000000000e-01 0. 9.
       -2     1     3     0     0   101 -4.5227147278e+01  1.0448708180e+02 -1.6442884779e+02  2.0000000000e+02  3.3000000000e-01 0. 9.
#pdf   11  -11  1.000000e+00  1.000000e+00  4.000000e+02  1.000000e+00  1.000000e+00
</event>
<event>
     5  9999  1.000000e+00  4.000000e+02  7.950764e-03  1.063124e-01
       11    -1     0     0     0     0  0.0000000000e+00  0.0000000000e+00  2.0000000000e+02  2.0000000000e+02  0.0000000000e+00 0. 9.
      -11    -1     0     0     0     0  0.0000000000e+00  0.0000000000e+00 -2.0000000000e+02  2.0000000000e+02  0.0000000000e+00 0. 9.
       23     2     1     2     0     0  0.0000000000e+00  0.0000000000e+00  0.0000000000e+00  4.0000000000e+02  4.0000000000e+02 0. 9.
        2     1     3     0   101     0 -2.3814938622e+01  1.5030244101e+02  1.2977640781e+02  2.0000000000e+02  3.3000000000e-01 0. 9.
       -2     1     3     0     0   101  2.3814938622e+01 -1.5030244101e+02 -1.2977640781e+02  2.0000000000e+02  3.3000000000e-01 0. 9.
#pdf   11  -11  1.000000e+00  1.000000e+00  4.000000e+02  1.000000e+00  1.000000e+00
</event>
<event>
     5  9999  1.000000e+00  4.000000e+02  7.950764e-03  1.063124e-01
       11    -1     0     0     0     0  0.0000000000e+00  0.0000000000e+00  2.0000000000e+02  2.0000000000e+02  0.0000000000e+00 0. 9.
      -11    -1     0     0     0     0  0.0000000000e+00  0.0000000000e+00 -2.0000000000e+02  2.0000000000e+02  0.0000000000e+00 0. 9.
       23     2     1     2     0     0  0.0000000000e+00  0.0000000000e+00  0.0000000000e+00  4.0000000000e+02  4.0000000000e+02 0. 9.
        2     1     3     0   101     0  1.1370987963e+02  1.6109785769e+02 -3.3428051427e+01  2.0000000000e+02  3.3000000000e-01 0. 9.
       -2     1     3     0     0   101 -1.1370987963e+02 -1.6109785769e+02  3.3428051427e+01  2.0000000000e+02  3.3000000000e-01 0. 9.
#pdf   11  -11  1.000000e+00  1.000000e+00  4.000000e+02  1.000000e+00  1.000000e+00
</event>
<event>
     5  9999  1.000000e+00  4.000000e+02  7.950764e-03  1.063124e-01
       11    -1     0     0     0     0  0.0000000000e+00  0.0000000000e+00  2.0000000000e+02  2.0000000000e+02  0.0000000000e+00 0. 9.
      -11    -1     0     0     0     0  0.0000000000e+00  0.0000000000e+00 -2.0000000000e+02  2.0000000000e+02  0.0000000000e+00 0. 9.
       23     2     1     2     0     0  0.0000000000e+00  0.0000000000e+00  0.0000000000e+00  4.0000000000e+02  4.0000000000e+02 0. 9.
        2     1     3     0   101     0 -1.8594857908e+02 -4.0304504974e+01 -6.1632490770e+01  2.0000000000e+02  3.3000000000e-01 0. 9.
       -2     1     3     0     0   101  1.8594857908e+02  4.0304504974e+01  6.1632490770e+01  2.0000000000e+02  3.3000000000e-01 0. 9.
#pdf   11  -11  1.000000e+00  1.000000e+00  4.000000e+02  1.000000e+00  1.000000e+00
</event>
<event>
     5  9999  1.000000e+00  4.000000e+02  7.950764e-03  1.063124e-01
       11    -1     0     0     0     0  0.0000000000e+00  0.0000000000e+00  2.0000000000e+02  2.0000000000e+02  0.0000000000e+00 0. 9.
      -11    -1     0     0     0     0  0.0000000000e+00  0.0000000000e+00 -2.0000000000e+02  2.0000000000e+02  0.0000000000e+00 0. 9.
       23     2     1     2     0     0  0.0000000000e+00  0.0000000000e+00  0.0000000000e+00  4.0000000000e+02  4.0000000000e+02 0. 9.
        2     1     3     0   101     0 -1.2294145294e+02  6.8631524468e+01  1.4203874154e+02  2.0000000000e+02  3.3000000000e-01 0. 9.
       -2     1     3     0     0   101  1.2294145294e+02 -6.8631524468e+01 -1.4203874154e+02  2.0000000000e+02  3.3000000000e-01 0. 9.
#pdf   11  -11  1.000000e+00  1.000000e+00  4.000000e+02  1.000000e+00  1.000000e+00
</event>
<event>
     5  9999  1.000000e+00  4.000000e+02  7.950764e-03  1.063124e-01
       11    -1     0     0     0     0  0.0000000000e+00  0.0000000000e+00  2.0000000000e+02  2.0000000000e+02  0.0000000000e+00 0. 9.
      -11    -1     0     0     0     0  0.0000000000e+00  0.0000000000e+00 -2.0000000000e+02  2.0000000000e+02  0.0000000000e+00 0. 9.
       23     2     1     2     0     0  0.0000000000e+00  0.0000000000e+00  0.0000000000e+00  4.0000000000e+02  4.0000000000e+02 0. 9.
        2     1     3     0   101     0 -7.4049840678e+01  1.2428558493e+02  1.3809274266e+02  2.0000000000e+02  3.3000000000e-01 0. 9.
       -2     1     3     0     0   101  7.4049840678e+01 -1.2428558493e+02 -1.3809274266e+02  2.0000000000e+02  3.3000000000e-01 0. 9.
#pdf   11  -11  1.000000e+00  1.000000e+00  4.000000e+02  1.000000e+00  1.000000e+00
</event>
<event>
     5  9999  1.000000e+00  4.000000e+02  7.950764e-03  1.063124e-01
       11    -1     0     0     0     0  0.0000000000e+00  0.0000000000e+00  2.0000000000e+02  2.0000000000e+02  0.0000000000e+00 0. 9.
      -11    -1     0     0     0     0  0.0000000000e+00  0.0000000000e+00 -2.0000000000e+02  2.0000000000e+02  0.0000000000e+00 0. 9.
       23     2     1     2     0     0  0.0000000000e+00  0.0000000000e+00  0.0000000000e+00  4.0000000000e+02  4.0000000000e+02 0. 9.
        2     1     3     0   101     0 -9.3511968617e+01 -1.3846229548e+02  1.0992540906e+02  2.0000000000e+02  3.3000000000e-01 0. 9.
       -2     1     3     0     0   101  9.3511968617e+01  1.3846229548e+02 -1.0992540906e+02  2.0000000000e+02  3.3000000000e-01 0. 9.
#pdf   11  -11  1.000000e+00  1.000000e+00  4.000000e+02  1.000000e+00  1.000000e+00
</event>
<event>
     5  9999  1.000000e+00  4.000000e+02  7.950764e-03  1.063124e-01
       11    -1     0     0     0     0  0.0000000000e+00  0.0000000000e+00  2.0000000000e+02  2.0000000000e+02  0.0000000000e+00 0. 9.
      -11    -1     0     0     0     0  0.0000000000e+00  0.0000000000e+00 -2.0000000000e+02  2.0000000000e+02  0.0000000000e+00 0. 9.
       23     2     1     2     0     0  0.0000000000e+00  0.0000000000e+00  0.0000000000e+00  4.0000000000e+02  4.0000000000e+02 0. 9.
        2     1     3     0   101     0 -7.0747116248e+01 -1.8682586887e+02 -9.5305489121e+00  2.0000000000e+02  3.3000000000e-01 0. 9.
       -2     1     3     0     0   101  7.0747116248e+01  1.8682586887e+02  9.5305489121e+00  2.0000000000e+02  3.3000000000e-01 0. 9.
#pdf   11  -11  1.000000e+00  1.000000e+00  4.000000e+02  1.000000e+00  1.000000e+00
</event>
<event>
     5  9999  1.000000e+00  4.000000e+02  7.950764e-03  1.063124e-01
       11    -1     0     0     0     0  0.0000000000e+00  0.0000000000e+00  2.0000000000e+02  2.0000000000e+02  0.0000000000e+00 0. 9.
      -11    -1     0     0     0     0  0.0000000000e+00  0.0000000000e+00 -2.0000000000e+02  2.0000000000e+02  0.0000000000e+00 0. 9.
       23     2     1     2     0     0  0.0000000000e+00  0.0000000000e+00  0.0000000000e+00  4.0000000000e+02  4.0000000000e+02 0. 9.
        2     1     3     0   101     0 -1.5094097806e+02 -9.1166221123e+01  9.4368598429e+01  2.0000000000e+02  3.3000000000e-01 0. 9.
       -2     1     3     0     0   101  1.5094097806e+02  9.1166221123e+01 -9.4368598429e+01  2.0000000000e+02  3.3000000000e-01 0. 9.
#pdf   11  -11  1.000000e+00  1.000000e+00  4.000000e+02  1.000000e+00  1.000000e+00
</event>
<event>
     5  9999  1.000000e+00  4.000000e+02  7.950764e-03  1.063124e-01
       11    -1     0     0     0     0  0.0000000000e+00  0.0000000000e+00  2.0000000000e+02  2.0000000000e+02  0.0000000000e+00 0. 9.
      -11    -1     0     0     0     0  0.0000000000e+00  0.0000000000e+00 -2.0000000000e+02  2.0000000000e+02  0.0000000000e+00 0. 9.
       23     2     1     2     0     0  0.0000000000e+00  0.0000000000e+00  0.0000000000e+00  4.0000000000e+02  4.0000000000e+02 0. 9.
        2     1     3     0   101     0 -1.6037324882e+02  2.8278287087e+01  1.1610620415e+02  2.0000000000e+02  3.3000000000e-01 0. 9.
       -2     1     3     0     0   101  1.6037324882e+02 -2.8278287087e+01 -1.1610620415e+02  2.0000000000e+02  3.3000000000e-01 0. 9.
#pdf   11  -11  1.000000e+00  1.000000e+00  4.000000e+02  1.000000e+00  1.000000e+00
</event>
<event>
     5  9999  1.000000e+00  4.000000e+02  7.950764e-03  1.063124e-01
       11    -1     0     0     0     0  0.0000000000e+00  0.0000000000e+00  2.0000000000e+02  2.0000000000e+02  0.0000000000e+00 0. 9.
      -11    -1     0     0     0     0  0.0000000000e+00  0.0000000000e+00 -2.0000000000e+02  2.0000000000e+02  0.0000000000e+00 0. 9.
       23     2     1     2     0     0  0.0000000000e+00  0.0000000000e+00  0.0000000000e+00  4.0000000000e+02  4.0000000000e+02 0. 9.
        2     1     3     0   101     0 -1.4597239764e+02 -9.0908003404e+01  1.0211603765e+02  2.0000000000e+02  3.3000000000e-01 0. 9.
       -2     1     3     0     0   101  1.4597239764e+02  9.0908003404e+01 -1.0211603765e+02  2.0000000000e+02  3.3000000000e-01 0. 9.
#pdf   11  -11  1.000000e+00  1.000000e+00  4.000000e+02  1.000000e+00  1.000000e+00
</event>
<event>
     5  9999  1.000000e+00  4.000000e+02  7.950764e-03  1.063124e-01
       11    -1     0     0     0     0  0.0000000000e+00  0.0000000000e+00  2.0000000000e+02  2.0000000000e+02  0.0000000000e+00 0. 9.
      -11    -1     0     0     0     0  0.0000000000e+00  0.0000000000e+00 -2.0000000000e+02  2.0000000000e+02  0.0000000000e+00 0. 9.
       23     2     1     2     0     0  0.0000000000e+00  0.0000000000e+00  0.0000000000e+00  4.0000000000e+02  4.0000000000e+02 0. 9.
        2     1     3     0   101     0  2.5670604740e+01  7.7271986974e+01 -1.8267444042e+02  2.0000000000e+02  3.3000000000e-01 0. 9.
       -2     1     3     0     0   101 -2.5670604740e+01 -7.7271986974e+01  1.8267444042e+02  2.0000000000e+02  3.3000000000e-01 0. 9.
#pdf   11  -11  1.000000e+00  1.000000e+00  4.000000e+02  1.000000e+00  1.000000e+00
</event>
<event>
     5  9999  1.000000e+00  4.000000e+02  7.950764e-03  1.063124e-01
       11    -1     0     0     0     0  0.0000000000e+00  0.0000000000e+00  2.0000000000e+02  2.0000000000e+02  0.0000000000e+00 0. 9.
      -11    -1     0     0     0     0  0.0000000000e+00  0.0000000000e+00 -2.0000000000e+02  2.0000000000e+02  0.0000000000e+00 0. 9.
       23     2     1     2     0     0  0.0000000000e+00  0.0000000000e+00  0.0000000000e+00  4.0000000000e+02  4.0000000000e+02 0. 9.
        2     1     3     0   101     0  1.9515343244e+02 -4.2737224151e+01  9.4105567456e+00  2.0000000000e+02  3.3000000000e-01 0. 9.
       -2     1     3     0     0   101 -1.9515343244e+02  4.2737224151e+01 -9.4105567456e+00  2.0000000000e+02  3.3000000000e-01 0. 9.
#pdf   11  -11  1.000000e+00  1.000000e+00  4.000000e+02  1.000000e+00  1.000000e+00
</event>
<event>
     5  9999  1.000000e+00  4.000000e+02  7.950764e-03  1.063124e-01
       11    -1     0     0     0     0  0.0000000000e+00  0.0000000000e+00  2.0000000000e+02  2.0000000000e+02  0.0000000000e+00 0. 9.
      -11    -1     0     0     0     0  0.0000000000e+00  0.0000000000e+00 -2.0000000000e+02  2.0000000000e+02  0.0000000000e+00 0. 9.
       23     2     1     2     0     0  0.0000000000e+00  0.0000000000e+00  0.0000000000e+00  4.0000000000e+02  4.0000000000e+02 0. 9.
        2     1     3     0   101     0  3.9498417746e+01 -8.1671210999e+01  1.7824022944e+02  2.0000000000e+02  3.3000000000e-01 0. 9.
       -2     1     3     0     0   101 -3.9498417746e+01  8.1671210999e+01 -1.7824022944e+02  2.0000000000e+02  3.3000000000e-01 0. 9.
#pdf   11  -11  1.000000e+00  1.000000e+00  4.000000e+02  1.000000e+00  1.000000e+00
</event>
<event>
     5  9999  1.000000e+00  4.000000e+02  7.950764e-03  1.063124e-01
       11    -1     0     0     0     0  0.0000000000e+00  0.0000000000e+00  2.0000000000e+02  2.0000000000e+02  0.0000000000e+00 0. 9.
      -11    -1     0     0     0     0  0.0000000000e+00  0.0000000000e+00 -2.0000000000e+02  2.0000000000e+02  0.0000000000e+00 0. 9.
       23     2     1     2     0     0  0.0000000000e+00  0.0000000000e+00  0.0000000000e+00  4.0000000000e+02  4.0000000000e+02 0. 9.
        2     1     3     0   101     0  1.3500947735e+02  1.3635569134e+02  5.6386678977e+01  2.0000000000e+02  3.3000000000e-01 0. 9.
       -2     1     3     0     0   101 -1.3500947735e+02 -1.3635569134e+02 -5.6386678977e+01  2.0000000000e+02  3.3000000000e-01 0. 9.
#pdf   11  -11  1.000000e+00  1.000000e+00  4.000000e+02  1.000000e+00  1.000000e+00
</event>
<event>
     5  9999  1.000000e+00  4.000000e+02  7.950764e-03  1.063124e-01
       11    -1     0     0     0     0  0.0000000000e+00  0.0000000000e+00  2.0000000000e+02  2.0000000000e+02  0.0000000000e+00 0. 9.
      -11    -1     0     0     0     0  0.0000000000e+00  0.0000000000e+00 -2.0000000000e+02  2.0000000000e+02  0.0000000000e+00 0. 9.
       23     2     1     2     0     0  0.0000000000e+00  0.0000000000e+00  0.0000000000e+00  4.0000000000e+02  4.0000000000e+02 0. 9.
        2     1     3     0   101     0  8.3441160916e+01  1.6846167079e+02  6.8250488937e+01  2.0000000000e+02  3.3000000000e-01 0. 9.
       -2     1     3     0     0   101 -8.3441160916e+01 -1.6846167079e+02 -6.8250488937e+01  2.0000000000e+02  3.3000000000e-01 0. 9.
#pdf   11  -11  1.000000e+00  1.000000e+00  4.000000e+02  1.000000e+00  1.000000e+00
</event>
<event>
     5  9999  1.000000e+00  4.000000e+02  7.950764e-03  1.063124e-01
       11    -1     0     0     0     0  0.0000000000e+00  0.0000000000e+00  2.0000000000e+02  2.0000000000e+02  0.0000000000e+00 0. 9.
      -11    -1     0     0     0     0  0.0000000000e+00  0.0000000000e+00 -2.0000000000e+02  2.0000000000e+02  0.0000000000e+00 0. 9.
       23     2     1     2     0     0  0.0000000000e+00  0.0000000000e+00  0.0000000000e+00  4.0000000000e+02  4.0000000000e+02 0. 9.
        2     1     3     0   101     0 -1.4942495932e+02  1.1978126773e+02 -5.7658655314e+01  2.0000000000e+02  3.3000000000e-01 0. 9.
       -2     1     3     0     0   101  1.4942495932e+02 -1.1978126773e+02  5.7658655314e+01  2.0000000000e+02  3.3000000000e-01 0. 9.
#pdf   11  -11  1.000000e+00  1.000000e+00  4.000000e+02  1.000000e+00  1.000000e+00
</event>
<event>
     5  9999  1.000000e+00  4.000000e+02  7.950764e-03  1.063124e-01
       11    -1     0     0     0     0  0.0000000000e+00  0.0000000000e+00  2.0000000000e+02  2.0000000000e+02  0.0000000000e+00 0. 9.
      -11    -1     0     0     0     0  0.0000000000e+00  0.0000000000e+00 -2.0000000000e+02  2.0000000000e+02  0.0000000000e+00 0. 9.
       23     2     1     2     0     0  0.0000000000e+00  0.0000000000e+00  0.0000000000e+00  4.0000000000e+02  4.0000000000e+02 0. 9.
        2     1     3     0   101     0  4.1820738472e+01 -1.7067060631e+02  9.5511575618e+01  2.0000000000e+02  3.3000000000e-01 0. 9.
       -2     1     3     0     0   101 -4.1820738472e+01  1.7067060631e+02 -9.5511575618e+01  2.0000000000e+02  3.3000000000e-01 0. 9.
#pdf   11  -11  1.000000e+00  1.000000e+00  4.000000e+02  1.000000e+00  1.000000e+00
</event>
<event>
     5  9999  1.000000e+00  4.000000e+02  7.950764e-03  1.063124e-01
       11    -1     0     0     0     0  0.0000000000e+00  0.0000000000e+00  2.0000000000e+02  2.0000000000e+02  0.0000000000e+00 0. 9.
      -11    -1     0     0     0     0  0.0000000000e+00  0.0000000000e+00 -2.0000000000e+02  2.0000000000e+02  0.0000000000e+00 0. 9.
       23     2     1     2     0     0  0.0000000000e+00  0.0000000000e+00  0.0000000000e+00  4.0000000000e+02  4.0000000000e+02 0. 9.
        2     1     3     0   101     0  7.2360515540e+01  1.0502306933e+02  1.5405843632e+02  2.0000000000e+02  3.3000000000e-01 0. 9.
       -2     1     3     0     0   101 -7.2360515540e+01 -1.0502306933e+02 -1.5405843632e+02  2.0000000000e+02  3.3000000000e-01 0. 9.
#pdf   11  -11  1.000000e+00  1.000000e+00  4.000000e+02  1.000000e+00  1.000000e+00
</event>
<event>
     5  9999  1.000000e+00  4.000000e+02  7.950764e-03  1.063124e-01
       11    -1     0     0     0     0  0.0000000000e+00  0.0000000000e+00  2.0000000000e+02  2.0000000000e+02  0.0000000000e+00 0. 9.
      -11    -1     0     0     0     0  0.0000000000e+00  0.0000000000e+00 -2.0000000000e+02  2.0000000000e+02  0.0000000000e+00 0. 9.
       23     2     1     2     0     0  0.0000000000e+00  0.0000000000e+00  0.0000000000e+00  4.0000000000e+02  4.0000000000e+02 0. 9.
        2     1     3     0   101     0  1.4960984388e+02  5.6557104689e+01  1.2007530813e+02  2.0000000000e+02  3.3000000000e-01 0. 9.
       -2     1     3     0     0   101 -1.4960984388e+02 -5.6557104689e+01 -1.2007530813e+02  2.0000000000e+02  3.3000000000e-01 0. 9.
#pdf   11  -11  1.000000e+00  1.000000e+00  4.000000e+02  1.000000e+00  1.000000e+00
</event>
<event>
     5  9999  1.000000e+00  4.000000e+02  7.950764e-03  1.063124e-01
       11    -1     0     0     0     0  0.0000000000e+00  0.0000000000e+00  2.0000000000e+02  2.0000000000e+02  0.0000000000e+00 0. 9.
      -11    -1     0     0     0     0  0.0000000000e+00  0.0000000000e+00 -2.0000000000e+02  2.0000000000e+02  0.0000000000e+00 0. 9.
       23     2     1     2     0     0  0.0000000000e+00  0.0000000000e+00  0.0000000000e+00  4.0000000000e+02  4.0000000000e+02 0. 9.
        2     1     3     0   101     0 -1.9031376966e+01 -4.1542619746e+00  1.9904883797e+02  2.0000000000e+02  3.3000000000e-01 0. 9.
       -2     1     3     0     0   101  1.9031376966e+01  4.1542619746e+00 -1.9904883797e+02  2.0000000000e+02  3.3000000000e-01 0. 9.
#pdf   11  -11  1.000000e+00  1.000000e+00  4.000000e+02  1.000000e+00  1.000000e+00
</event>
<event>
     5  9999  1.000000e+00  4.000000e+02  7.950764e-03  1.063124e-01
       11    -1     0     0     0     0  0.0000000000e+00  0.0000000000e+00  2.0000000000e+02  2.0000000000e+02  0.0000000000e+00 0. 9.
      -11    -1     0     0     0     0  0.0000000000e+00  0.0000000000e+00 -2.0000000000e+02  2.0000000000e+02  0.0000000000e+00 0. 9.
       23     2     1     2     0     0  0.0000000000e+00  0.0000000000e+00  0.0000000000e+00  4.0000000000e+02  4.0000000000e+02 0. 9.
        2     1     3     0   101     0 -2.5270475499e+01  8.8780898366e+01  1.7742391680e+02  2.0000000000e+02  3.3000000000e-01 0. 9.
       -2     1     3     0     0   101  2.5270475499e+01 -8.8780898366e+01 -1.7742391680e+02  2.0000000000e+02  3.3000000000e-01 0. 9.
#pdf   11  -11  1.000000e+00  1.000000e+00  4.000000e+02  1.000000e+00  1.000000e+00
</event>
<event>
     5  9999  1.000000e+00  4.000000e+02  7.950764e-03  1.063124e-01
       11    -1     0     0     0     0  0.0000000000e+00  0.0000000000e+00  2.0000000000e+02  2.0000000000e+02  0.0000000000e+00 0. 9.
      -11    -1     0     0     0     0  0.0000000000e+00  0.0000000000e+00 -2.0000000000e+02  2.0000000000e+02  0.0000000000e+00 0. 9.
       23     2     1     2     0     0  0.0000000000e+00  0.0000000000e+00  0.0000000000e+00  4.0000000000e+02  4.0000000000e+02 0. 9.
        2     1     3     0   101     0  8.7811939526e+01 -1.7095249578e+02  5.5355203573e+01  2.0000000000e+02  3.3000000000e-01 0. 9.
       -2     1     3     0     0   101 -8.7811939526e+01  1.7095249578e+02 -5.5355203573e+01  2.0000000000e+02  3.3000000000e-01 0. 9.
#pdf   11  -11  1.000000e+00  1.000000e+00  4.000000e+02  1.000000e+00  1.000000e+00
</event>
<event>
     5  9999  1.000000e+00  4.000000e+02  7.950764e-03  1.063124e-01
       11    -1     0     0     0     0  0.0000000000e+00  0.0000000000e+00  2.0000000000e+02  2.0000000000e+02  0.0000000000e+00 0. 9.
      -11    -1     0     0     0     0  0.0000000000e+00  0.0000000000e+00 -2.0000000000e+02  2.0000000000e+02  0.0000000000e+00 0. 9.
       23     2     1     2     0     0  0.0000000000e+00  0.0000000000e+00  0.0000000000e+00  4.0000000000e+02  4.0000000000e+02 0. 9.
        2     1     3     0   101     0 -1.9481262983e+02  3.4161199176e+01 -2.9680681072e+01  2.0000000000e+02  3.3000000000e-01 0. 9.
       -2     1     3     0     0   101  1.9481262983e+02 -3.4161199176e+01  2.9680681072e+01  2.0000000000e+02  3.3000000000e-01 0. 9.
#pdf   11  -11  1.000000e+00  1.000000e+00  4.000000e+02  1.000000e+00  1.000000e+00
</event>
<event>
     5  9999  1.000000e+00  4.000000e+02  7.950764e-03  1.063124e-01
       11    -1     0     0     0     0  0.0000000000e+00  0.0000000000e+00  2.0000000000e+02  2.0000000000e+02  0.0000000000e+00 0. 9.
      -11    -1     0     0     0     0  0.0000000000e+00  0.0000000000e+00 -2.0000000000e+02  2.0000000000e+02  0.0000000000e+00 0. 9.
       23     2     1     2     0     0  0.0000000000e+00  0.0000000000e+00  0.0000000000e+00  4.0000000000e+02  4.0000000000e+02 0. 9.
        2     1     3     0   101     0 -1.2485423854e+02 -5.0694895317e+01  1.4778815178e+02  2.0000000000e+02  3.3000000000e-01 0. 9.
       -2     1     3     0     0   101  1.2485423854e+02  5.0694895317e+01 -1.4778815178e+02  2.0000000000e+02  3.3000000000e-01 0. 9.
#pdf   11  -11  1.000000e+00  1.000000e+00  4.000000e+02  1.000000e+00  1.000000e+00
</event>
<event>
     5  9999  1.000000e+00  4.000000e+02  7.950764e-03  1.063124e-01
       11    -1     0     0     0     0  0.0000000000e+00  0.0000000000e+00  2.0000000000e+02  2.0000000000e+02  0.0000000000e+00 0. 9.
      -11    -1     0     0     0     0  0.0000000000e+00  0.0000000000e+00 -2.0000000000e+02  2.0000000000e+02  0.0000000000e+00 0. 9.
       23     2     1     2     0     0  0.0000000000e+00  0.0000000000e+00  0.0000000000e+00  4.0000000000e+02  4.0000000000e+02 0. 9.
        2     1     3     0   101     0  1.0221437791e+02 -9.8554578413e+01  1.4085136536e+02  2.0000000000e+02  3.3000000000e-01 0. 9.
       -2     1     3     0     0   101 -1.0221437791e+02  9.8554578413e+01 -1.4085136536e+02  2.0000000000e+02  3.3000000000e-01 0. 9.
#pdf   11  -11  1.000000e+00  1.000000e+00  4.000000e+02  1.000000e+00  1.000000e+00
</event>
<event>
     5  9999  1.000000e+00  4.000000e+02  7.950764e-03  1.063124e-01
       11    -1     0     0     0     0  0.0000000000e+00  0.0000000000e+00  2.0000000000e+02  2.0000000000e+02  0.0000000000e+00 0. 9.
      -11    -1     0     0     0     0  0.0000000000e+00  0.0000000000e+00 -2.0000000000e+02  2.0000000000e+02  0.0000000000e+00 0. 9.
       23     2     1     2     0     0  0.0000000000e+00  0.0000000000e+00  0.0000000000e+00  4.0000000000e+02  4.0000000000e+02 0. 9.
        2     1     3     0   101     0 -9.5186884019e+01  8.5178828342e+01  1.5389579401e+02  2.0000000000e+02  3.3000000000e-01 0. 9.
       -2     1     3     0     0   101  9.5186884019e+01 -8.5178828342e+01 -1.5389579401e+02  2.0000000000e+02  3.3000000000e-01 0. 9.
#pdf   11  -11  1.000000e+00  1.000000e+00  4.000000e+02  1.000000e+00  1.000000e+00
</event>
</LesHouchesEvents>
