<LesHouchesEvents version="1.0">
<!--
  File written by Pythia8::LHAup on 07 Jun 2015 at 18:23:03
-->
<init>
  11  -11  2.500000e+01  2.500000e+01  0  0  0  0  3  1
  5.738856e+01  3.140185e-07  1.000000e+00   9999
</init>
<event>
     5  9999  1.000000e+00  5.000000e+01  7.764622e-03  1.436968e-01
       11    -1     0     0     0     0  0.0000000000e+00  0.0000000000e+00  2.5000000000e+01  2.5000000000e+01  0.0000000000e+00 0. 9.
      -11    -1     0     0     0     0  0.0000000000e+00  0.0000000000e+00 -2.5000000000e+01  2.5000000000e+01  0.0000000000e+00 0. 9.
       23     2     1     2     0     0  0.0000000000e+00  0.0000000000e+00  0.0000000000e+00  5.0000000000e+01  5.0000000000e+01 0. 9.
        2     1     3     0   101     0 -3.9878400219e+00 -2.0965144628e+01  1.3017332395e+01  2.5000000000e+01  3.3000000000e-01 0. 9.
       -2     1     3     0     0   101  3.9878400219e+00  2.0965144628e+01 -1.3017332395e+01  2.5000000000e+01  3.3000000000e-01 0. 9.
#pdf   11  -11  1.000000e+00  1.000000e+00  5.000000e+01  1.000000e+00  1.000000e+00
</event>
<event>
     5  9999  1.000000e+00  5.000000e+01  7.764622e-03  1.436968e-01
       11    -1     0     0     0     0  0.0000000000e+00  0.0000000000e+00  2.5000000000e+01  2.5000000000e+01  0.0000000000e+00 0. 9.
      -11    -1     0     0     0     0  0.0000000000e+00  0.0000000000e+00 -2.5000000000e+01  2.5000000000e+01  0.0000000000e+00 0. 9.
       23     2     1     2     0     0  0.0000000000e+00  0.0000000000e+00  0.0000000000e+00  5.0000000000e+01  5.0000000000e+01 0. 9.
        2     1     3     0   101     0 -6.4972127990e+00  3.2999505722e+00 -2.3912081718e+01  2.5000000000e+01  3.3000000000e-01 0. 9.
       -2     1     3     0     0   101  6.4972127990e+00 -3.2999505722e+00  2.3912081718e+01  2.5000000000e+01  3.3000000000e-01 0. 9.
#pdf   11  -11  1.000000e+00  1.000000e+00  5.000000e+01  1.000000e+00  1.000000e+00
</event>
<event>
     5  9999  1.000000e+00  5.000000e+01  7.764622e-03  1.436968e-01
       11    -1     0     0     0     0  0.0000000000e+00  0.0000000000e+00  2.5000000000e+01  2.5000000000e+01  0.0000000000e+00 0. 9.
      -11    -1     0     0     0     0  0.0000000000e+00  0.0000000000e+00 -2.5000000000e+01  2.5000000000e+01  0.0000000000e+00 0. 9.
       23     2     1     2     0     0  0.0000000000e+00  0.0000000000e+00  0.0000000000e+00  5.0000000000e+01  5.0000000000e+01 0. 9.
        2     1     3     0   101     0 -1.3735834254e+01 -5.3215891026e+00 -2.0196500855e+01  2.5000000000e+01  3.3000000000e-01 0. 9.
       -2     1     3     0     0   101  1.3735834254e+01  5.3215891026e+00  2.0196500855e+01  2.5000000000e+01  3.3000000000e-01 0. 9.
#pdf   11  -11  1.000000e+00  1.000000e+00  5.000000e+01  1.000000e+00  1.000000e+00
</event>
<event>
     5  9999  1.000000e+00  5.000000e+01  7.764622e-03  1.436968e-01
       11    -1     0     0     0     0  0.0000000000e+00  0.0000000000e+00  2.5000000000e+01  2.5000000000e+01  0.0000000000e+00 0. 9.
      -11    -1     0     0     0     0  0.0000000000e+00  0.0000000000e+00 -2.5000000000e+01  2.5000000000e+01  0.0000000000e+00 0. 9.
       23     2     1     2     0     0  0.0000000000e+00  0.0000000000e+00  0.0000000000e+00  5.0000000000e+01  5.0000000000e+01 0. 9.
        2     1     3     0   101     0  9.5678317756e+00  4.8934814163e+00 -2.2569925448e+01  2.5000000000e+01  3.3000000000e-01 0. 9.
       -2     1     3     0     0   101 -9.5678317756e+00 -4.8934814163e+00  2.2569925448e+01  2.5000000000e+01  3.3000000000e-01 0. 9.
#pdf   11  -11  1.000000e+00  1.000000e+00  5.000000e+01  1.000000e+00  1.000000e+00
</event>
<event>
     5  9999  1.000000e+00  5.000000e+01  7.764622e-03  1.436968e-01
       11    -1     0     0     0     0  0.0000000000e+00  0.0000000000e+00  2.5000000000e+01  2.5000000000e+01  0.0000000000e+00 0. 9.
      -11    -1     0     0     0     0  0.0000000000e+00  0.0000000000e+00 -2.5000000000e+01  2.5000000000e+01  0.0000000000e+00 0. 9.
       23     2     1     2     0     0  0.0000000000e+00  0.0000000000e+00  0.0000000000e+00  5.0000000000e+01  5.0000000000e+01 0. 9.
        2     1     3     0   101     0 -7.9570319550e+00  1.1900867633e+01 -2.0492586270e+01  2.5000000000e+01  3.3000000000e-01 0. 9.
       -2     1     3     0     0   101  7.9570319550e+00 -1.1900867633e+01  2.0492586270e+01  2.5000000000e+01  3.3000000000e-01 0. 9.
#pdf   11  -11  1.000000e+00  1.000000e+00  5.000000e+01  1.000000e+00  1.000000e+00
</event>
<event>
     5  9999  1.000000e+00  5.000000e+01  7.764622e-03  1.436968e-01
       11    -1     0     0     0     0  0.0000000000e+00  0.0000000000e+00  2.5000000000e+01  2.5000000000e+01  0.0000000000e+00 0. 9.
      -11    -1     0     0     0     0  0.0000000000e+00  0.0000000000e+00 -2.5000000000e+01  2.5000000000e+01  0.0000000000e+00 0. 9.
       23     2     1     2     0     0  0.0000000000e+00  0.0000000000e+00  0.0000000000e+00  5.0000000000e+01  5.0000000000e+01 0. 9.
        2     1     3     0   101     0 -1.8486574742e+01  1.5040521727e+01  7.5445583366e+00  2.5000000000e+01  3.3000000000e-01 0. 9.
       -2     1     3     0     0   101  1.8486574742e+01 -1.5040521727e+01 -7.5445583366e+00  2.5000000000e+01  3.3000000000e-01 0. 9.
#pdf   11  -11  1.000000e+00  1.000000e+00  5.000000e+01  1.000000e+00  1.000000e+00
</event>
<event>
     5  9999  1.000000e+00  5.000000e+01  7.764622e-03  1.436968e-01
       11    -1     0     0     0     0  0.0000000000e+00  0.0000000000e+00  2.5000000000e+01  2.5000000000e+01  0.0000000000e+00 0. 9.
      -11    -1     0     0     0     0  0.0000000000e+00  0.0000000000e+00 -2.5000000000e+01  2.5000000000e+01  0.0000000000e+00 0. 9.
       23     2     1     2     0     0  0.0000000000e+00  0.0000000000e+00  0.0000000000e+00  5.0000000000e+01  5.0000000000e+01 0. 9.
        2     1     3     0   101     0  9.7700931114e+00  1.8669909892e+01 -1.3448823191e+01  2.5000000000e+01  3.3000000000e-01 0. 9.
       -2     1     3     0     0   101 -9.7700931114e+00 -1.8669909892e+01  1.3448823191e+01  2.5000000000e+01  3.3000000000e-01 0. 9.
#pdf   11  -11  1.000000e+00  1.000000e+00  5.000000e+01  1.000000e+00  1.000000e+00
</event>
<event>
     5  9999  1.000000e+00  5.000000e+01  7.764622e-03  1.436968e-01
       11    -1     0     0     0     0  0.0000000000e+00  0.0000000000e+00  2.5000000000e+01  2.5000000000e+01  0.0000000000e+00 0. 9.
      -11    -1     0     0     0     0  0.0000000000e+00  0.0000000000e+00 -2.5000000000e+01  2.5000000000e+01  0.0000000000e+00 0. 9.
       23     2     1     2     0     0  0.0000000000e+00  0.0000000000e+00  0.0000000000e+00  5.0000000000e+01  5.0000000000e+01 0. 9.
        2     1     3     0   101     0 -6.3790989517e+00  1.2908735486e+01 -2.0434352075e+01  2.5000000000e+01  3.3000000000e-01 0. 9.
       -2     1     3     0     0   101  6.3790989517e+00 -1.2908735486e+01  2.0434352075e+01  2.5000000000e+01  3.3000000000e-01 0. 9.
#pdf   11  -11  1.000000e+00  1.000000e+00  5.000000e+01  1.000000e+00  1.000000e+00
</event>
<event>
     5  9999  1.000000e+00  5.000000e+01  7.764622e-03  1.436968e-01
       11    -1     0     0     0     0  0.0000000000e+00  0.0000000000e+00  2.5000000000e+01  2.5000000000e+01  0.0000000000e+00 0. 9.
      -11    -1     0     0     0     0  0.0000000000e+00  0.0000000000e+00 -2.5000000000e+01  2.5000000000e+01  0.0000000000e+00 0. 9.
       23     2     1     2     0     0  0.0000000000e+00  0.0000000000e+00  0.0000000000e+00  5.0000000000e+01  5.0000000000e+01 0. 9.
        2     1     3     0   101     0  6.9081796225e+00 -9.4887891943e+00  2.2071045148e+01  2.5000000000e+01  3.3000000000e-01 0. 9.
       -2     1     3     0     0   101 -6.9081796225e+00  9.4887891943e+00 -2.2071045148e+01  2.5000000000e+01  3.3000000000e-01 0. 9.
#pdf   11  -11  1.000000e+00  1.000000e+00  5.000000e+01  1.000000e+00  1.000000e+00
</event>
<event>
     5  9999  1.000000e+00  5.000000e+01  7.764622e-03  1.436968e-01
       11    -1     0     0     0     0  0.0000000000e+00  0.0000000000e+00  2.5000000000e+01  2.5000000000e+01  0.0000000000e+00 0. 9.
      -11    -1     0     0     0     0  0.0000000000e+00  0.0000000000e+00 -2.5000000000e+01  2.5000000000e+01  0.0000000000e+00 0. 9.
       23     2     1     2     0     0  0.0000000000e+00  0.0000000000e+00  0.0000000000e+00  5.0000000000e+01  5.0000000000e+01 0. 9.
        2     1     3     0   101     0  1.9883924148e+00 -1.2081017831e+01 -2.1794182796e+01  2.5000000000e+01  3.3000000000e-01 0. 9.
       -2     1     3     0     0   101 -1.9883924148e+00  1.2081017831e+01  2.1794182796e+01  2.5000000000e+01  3.3000000000e-01 0. 9.
#pdf   11  -11  1.000000e+00  1.000000e+00  5.000000e+01  1.000000e+00  1.000000e+00
</event>
<event>
     5  9999  1.000000e+00  5.000000e+01  7.764622e-03  1.436968e-01
       11    -1     0     0     0     0  0.0000000000e+00  0.0000000000e+00  2.5000000000e+01  2.5000000000e+01  0.0000000000e+00 0. 9.
      -11    -1     0     0     0     0  0.0000000000e+00  0.0000000000e+00 -2.5000000000e+01  2.5000000000e+01  0.0000000000e+00 0. 9.
       23     2     1     2     0     0  0.0000000000e+00  0.0000000000e+00  0.0000000000e+00  5.0000000000e+01  5.0000000000e+01 0. 9.
        2     1     3     0   101     0  6.4971380515e+00 -1.2084636854e+01  2.0895929011e+01  2.5000000000e+01  3.3000000000e-01 0. 9.
       -2     1     3     0     0   101 -6.4971380515e+00  1.2084636854e+01 -2.0895929011e+01  2.5000000000e+01  3.3000000000e-01 0. 9.
#pdf   11  -11  1.000000e+00  1.000000e+00  5.000000e+01  1.000000e+00  1.000000e+00
</event>
<event>
     5  9999  1.000000e+00  5.000000e+01  7.764622e-03  1.436968e-01
       11    -1     0     0     0     0  0.0000000000e+00  0.0000000000e+00  2.5000000000e+01  2.5000000000e+01  0.0000000000e+00 0. 9.
      -11    -1     0     0     0     0  0.0000000000e+00  0.0000000000e+00 -2.5000000000e+01  2.5000000000e+01  0.0000000000e+00 0. 9.
       23     2     1     2     0     0  0.0000000000e+00  0.0000000000e+00  0.0000000000e+00  5.0000000000e+01  5.0000000000e+01 0. 9.
        2     1     3     0   101     0 -7.4935056015e+00 -2.0632604057e+01 -1.1959687439e+01  2.5000000000e+01  3.3000000000e-01 0. 9.
       -2     1     3     0     0   101  7.4935056015e+00  2.0632604057e+01  1.1959687439e+01  2.5000000000e+01  3.3000000000e-01 0. 9.
#pdf   11  -11  1.000000e+00  1.000000e+00  5.000000e+01  1.000000e+00  1.000000e+00
</event>
<event>
     5  9999  1.000000e+00  5.000000e+01  7.764622e-03  1.436968e-01
       11    -1     0     0     0     0  0.0000000000e+00  0.0000000000e+00  2.5000000000e+01  2.5000000000e+01  0.0000000000e+00 0. 9.
      -11    -1     0     0     0     0  0.0000000000e+00  0.0000000000e+00 -2.5000000000e+01  2.5000000000e+01  0.0000000000e+00 0. 9.
       23     2     1     2     0     0  0.0000000000e+00  0.0000000000e+00  0.0000000000e+00  5.0000000000e+01  5.0000000000e+01 0. 9.
        2     1     3     0   101     0 -1.0447479152e+01  4.9295825605e+00  2.2168457212e+01  2.5000000000e+01  3.3000000000e-01 0. 9.
       -2     1     3     0     0   101  1.0447479152e+01 -4.9295825605e+00 -2.2168457212e+01  2.5000000000e+01  3.3000000000e-01 0. 9.
#pdf   11  -11  1.000000e+00  1.000000e+00  5.000000e+01  1.000000e+00  1.000000e+00
</event>
<event>
     5  9999  1.000000e+00  5.000000e+01  7.764622e-03  1.436968e-01
       11    -1     0     0     0     0  0.0000000000e+00  0.0000000000e+00  2.5000000000e+01  2.5000000000e+01  0.0000000000e+00 0. 9.
      -11    -1     0     0     0     0  0.0000000000e+00  0.0000000000e+00 -2.5000000000e+01  2.5000000000e+01  0.0000000000e+00 0. 9.
       23     2     1     2     0     0  0.0000000000e+00  0.0000000000e+00  0.0000000000e+00  5.0000000000e+01  5.0000000000e+01 0. 9.
        2     1     3     0   101     0 -2.2819279010e+01  2.1280547615e+00  9.9821334601e+00  2.5000000000e+01  3.3000000000e-01 0. 9.
       -2     1     3     0     0   101  2.2819279010e+01 -2.1280547615e+00 -9.9821334601e+00  2.5000000000e+01  3.3000000000e-01 0. 9.
#pdf   11  -11  1.000000e+00  1.000000e+00  5.000000e+01  1.000000e+00  1.000000e+00
</event>
<event>
     5  9999  1.000000e+00  5.000000e+01  7.764622e-03  1.436968e-01
       11    -1     0     0     0     0  0.0000000000e+00  0.0000000000e+00  2.5000000000e+01  2.5000000000e+01  0.0000000000e+00 0. 9.
      -11    -1     0     0     0     0  0.0000000000e+00  0.0000000000e+00 -2.5000000000e+01  2.5000000000e+01  0.0000000000e+00 0. 9.
       23     2     1     2     0     0  0.0000000000e+00  0.0000000000e+00  0.0000000000e+00  5.0000000000e+01  5.0000000000e+01 0. 9.
        2     1     3     0   101     0  8.2042564949e+00 -3.5407564356e+00  2.3346184254e+01  2.5000000000e+01  3.3000000000e-01 0. 9.
       -2     1     3     0     0   101 -8.2042564949e+00  3.5407564356e+00 -2.3346184254e+01  2.5000000000e+01  3.3000000000e-01 0. 9.
#pdf   11  -11  1.000000e+00  1.000000e+00  5.000000e+01  1.000000e+00  1.000000e+00
</event>
<event>
     5  9999  1.000000e+00  5.000000e+01  7.764622e-03  1.436968e-01
       11    -1     0     0     0     0  0.0000000000e+00  0.0000000000e+00  2.5000000000e+01  2.5000000000e+01  0.0000000000e+00 0. 9.
      -11    -1     0     0     0     0  0.0000000000e+00  0.0000000000e+00 -2.5000000000e+01  2.5000000000e+01  0.0000000000e+00 0. 9.
       23     2     1     2     0     0  0.0000000000e+00  0.0000000000e+00  0.0000000000e+00  5.0000000000e+01  5.0000000000e+01 0. 9.
        2     1     3     0   101     0  1.2970743308e+01 -1.8964705331e+01 -9.8483942728e+00  2.5000000000e+01  3.3000000000e-01 0. 9.
       -2     1     3     0     0   101 -1.2970743308e+01  1.8964705331e+01  9.8483942728e+00  2.5000000000e+01  3.3000000000e-01 0. 9.
#pdf   11  -11  1.000000e+00  1.000000e+00  5.000000e+01  1.000000e+00  1.000000e+00
</event>
<event>
     5  9999  1.000000e+00  5.000000e+01  7.764622e-03  1.436968e-01
       11    -1     0     0     0     0  0.0000000000e+00  0.0000000000e+00  2.5000000000e+01  2.5000000000e+01  0.0000000000e+00 0. 9.
      -11    -1     0     0     0     0  0.0000000000e+00  0.0000000000e+00 -2.5000000000e+01  2.5000000000e+01  0.0000000000e+00 0. 9.
       23     2     1     2     0     0  0.0000000000e+00  0.0000000000e+00  0.0000000000e+00  5.0000000000e+01  5.0000000000e+01 0. 9.
        2     1     3     0   101     0  1.9883217121e-01 -1.7442985246e+01 -1.7905134221e+01  2.5000000000e+01  3.3000000000e-01 0. 9.
       -2     1     3     0     0   101 -1.9883217121e-01  1.7442985246e+01  1.7905134221e+01  2.5000000000e+01  3.3000000000e-01 0. 9.
#pdf   11  -11  1.000000e+00  1.000000e+00  5.000000e+01  1.000000e+00  1.000000e+00
</event>
<event>
     5  9999  1.000000e+00  5.000000e+01  7.764622e-03  1.436968e-01
       11    -1     0     0     0     0  0.0000000000e+00  0.0000000000e+00  2.5000000000e+01  2.5000000000e+01  0.0000000000e+00 0. 9.
      -11    -1     0     0     0     0  0.0000000000e+00  0.0000000000e+00 -2.5000000000e+01  2.5000000000e+01  0.0000000000e+00 0. 9.
       23     2     1     2     0     0  0.0000000000e+00  0.0000000000e+00  0.0000000000e+00  5.0000000000e+01  5.0000000000e+01 0. 9.
        2     1     3     0   101     0 -1.8483167165e+00  2.3956768034e+01 -6.8955123567e+00  2.5000000000e+01  3.3000000000e-01 0. 9.
       -2     1     3     0     0   101  1.8483167165e+00 -2.3956768034e+01  6.8955123567e+00  2.5000000000e+01  3.3000000000e-01 0. 9.
#pdf   11  -11  1.000000e+00  1.000000e+00  5.000000e+01  1.000000e+00  1.000000e+00
</event>
<event>
     5  9999  1.000000e+00  5.000000e+01  7.764622e-03  1.436968e-01
       11    -1     0     0     0     0  0.0000000000e+00  0.0000000000e+00  2.5000000000e+01  2.5000000000e+01  0.0000000000e+00 0. 9.
      -11    -1     0     0     0     0  0.0000000000e+00  0.0000000000e+00 -2.5000000000e+01  2.5000000000e+01  0.0000000000e+00 0. 9.
       23     2     1     2     0     0  0.0000000000e+00  0.0000000000e+00  0.0000000000e+00  5.0000000000e+01  5.0000000000e+01 0. 9.
        2     1     3     0   101     0 -1.4397236460e+01  1.8846315813e+01  7.9010798358e+00  2.5000000000e+01  3.3000000000e-01 0. 9.
       -2     1     3     0     0   101  1.4397236460e+01 -1.8846315813e+01 -7.9010798358e+00  2.5000000000e+01  3.3000000000e-01 0. 9.
#pdf   11  -11  1.000000e+00  1.000000e+00  5.000000e+01  1.000000e+00  1.000000e+00
</event>
<event>
     5  9999  1.000000e+00  5.000000e+01  7.764622e-03  1.436968e-01
       11    -1     0     0     0     0  0.0000000000e+00  0.0000000000e+00  2.5000000000e+01  2.5000000000e+01  0.0000000000e+00 0. 9.
      -11    -1     0     0     0     0  0.0000000000e+00  0.0000000000e+00 -2.5000000000e+01  2.5000000000e+01  0.0000000000e+00 0. 9.
       23     2     1     2     0     0  0.0000000000e+00  0.0000000000e+00  0.0000000000e+00  5.0000000000e+01  5.0000000000e+01 0. 9.
        2     1     3     0   101     0  9.7388958605e+00 -2.2999150954e+01  1.0411833735e+00  2.5000000000e+01  3.3000000000e-01 0. 9.
       -2     1     3     0     0   101 -9.7388958605e+00  2.2999150954e+01 -1.0411833735e+00  2.5000000000e+01  3.3000000000e-01 0. 9.
#pdf   11  -11  1.000000e+00  1.000000e+00  5.000000e+01  1.000000e+00  1.000000e+00
</event>
<event>
     5  9999  1.000000e+00  5.000000e+01  7.764622e-03  1.436968e-01
       11    -1     0     0     0     0  0.0000000000e+00  0.0000000000e+00  2.5000000000e+01  2.5000000000e+01  0.0000000000e+00 0. 9.
      -11    -1     0     0     0     0  0.0000000000e+00  0.0000000000e+00 -2.5000000000e+01  2.5000000000e+01  0.0000000000e+00 0. 9.
       23     2     1     2     0     0  0.0000000000e+00  0.0000000000e+00  0.0000000000e+00  5.0000000000e+01  5.0000000000e+01 0. 9.
        2     1     3     0   101     0  1.0918546795e+01 -1.1241719587e+01 -1.9475630326e+01  2.5000000000e+01  3.3000000000e-01 0. 9.
       -2     1     3     0     0   101 -1.0918546795e+01  1.1241719587e+01  1.9475630326e+01  2.5000000000e+01  3.3000000000e-01 0. 9.
#pdf   11  -11  1.000000e+00  1.000000e+00  5.000000e+01  1.000000e+00  1.000000e+00
</event>
<event>
     5  9999  1.000000e+00  5.000000e+01  7.764622e-03  1.436968e-01
       11    -1     0     0     0     0  0.0000000000e+00  0.0000000000e+00  2.5000000000e+01  2.5000000000e+01  0.0000000000e+00 0. 9.
      -11    -1     0     0     0     0  0.0000000000e+00  0.0000000000e+00 -2.5000000000e+01  2.5000000000e+01  0.0000000000e+00 0. 9.
       23     2     1     2     0     0  0.0000000000e+00  0.0000000000e+00  0.0000000000e+00  5.0000000000e+01  5.0000000000e+01 0. 9.
        2     1     3     0   101     0 -2.1103922609e+00 -1.1084007424e+01  2.2306548903e+01  2.5000000000e+01  3.3000000000e-01 0. 9.
       -2     1     3     0     0   101  2.1103922609e+00  1.1084007424e+01 -2.2306548903e+01  2.5000000000e+01  3.3000000000e-01 0. 9.
#pdf   11  -11  1.000000e+00  1.000000e+00  5.000000e+01  1.000000e+00  1.000000e+00
</event>
<event>
     5  9999  1.000000e+00  5.000000e+01  7.764622e-03  1.436968e-01
       11    -1     0     0     0     0  0.0000000000e+00  0.0000000000e+00  2.5000000000e+01  2.5000000000e+01  0.0000000000e+00 0. 9.
      -11    -1     0     0     0     0  0.0000000000e+00  0.0000000000e+00 -2.5000000000e+01  2.5000000000e+01  0.0000000000e+00 0. 9.
       23     2     1     2     0     0  0.0000000000e+00  0.0000000000e+00  0.0000000000e+00  5.0000000000e+01  5.0000000000e+01 0. 9.
        2     1     3     0   101     0  3.9797586283e+00 -2.2871570253e+01 -9.2705930448e+00  2.5000000000e+01  3.3000000000e-01 0. 9.
       -2     1     3     0     0   101 -3.9797586283e+00  2.2871570253e+01  9.2705930448e+00  2.5000000000e+01  3.3000000000e-01 0. 9.
#pdf   11  -11  1.000000e+00  1.000000e+00  5.000000e+01  1.000000e+00  1.000000e+00
</event>
<event>
     5  9999  1.000000e+00  5.000000e+01  7.764622e-03  1.436968e-01
       11    -1     0     0     0     0  0.0000000000e+00  0.0000000000e+00  2.5000000000e+01  2.5000000000e+01  0.0000000000e+00 0. 9.
      -11    -1     0     0     0     0  0.0000000000e+00  0.0000000000e+00 -2.5000000000e+01  2.5000000000e+01  0.0000000000e+00 0. 9.
       23     2     1     2     0     0  0.0000000000e+00  0.0000000000e+00  0.0000000000e+00  5.0000000000e+01  5.0000000000e+01 0. 9.
        2     1     3     0   101     0 -1.0140640269e+01 -1.5619267767e+01  1.6676240265e+01  2.5000000000e+01  3.3000000000e-01 0. 9.
       -2     1     3     0     0   101  1.0140640269e+01  1.5619267767e+01 -1.6676240265e+01  2.5000000000e+01  3.3000000000e-01 0. 9.
#pdf   11  -11  1.000000e+00  1.000000e+00  5.000000e+01  1.000000e+00  1.000000e+00
</event>
<event>
     5  9999  1.000000e+00  5.000000e+01  7.764622e-03  1.436968e-01
       11    -1     0     0     0     0  0.0000000000e+00  0.0000000000e+00  2.5000000000e+01  2.5000000000e+01  0.0000000000e+00 0. 9.
      -11    -1     0     0     0     0  0.0000000000e+00  0.0000000000e+00 -2.5000000000e+01  2.5000000000e+01  0.0000000000e+00 0. 9.
       23     2     1     2     0     0  0.0000000000e+00  0.0000000000e+00  0.0000000000e+00  5.0000000000e+01  5.0000000000e+01 0. 9.
        2     1     3     0   101     0  1.0192748257e+01 -3.6952625429e+00 -2.2524298384e+01  2.5000000000e+01  3.3000000000e-01 0. 9.
       -2     1     3     0     0   101 -1.0192748257e+01  3.6952625429e+00  2.2524298384e+01  2.5000000000e+01  3.3000000000e-01 0. 9.
#pdf   11  -11  1.000000e+00  1.000000e+00  5.000000e+01  1.000000e+00  1.000000e+00
</event>
<event>
     5  9999  1.000000e+00  5.000000e+01  7.764622e-03  1.436968e-01
       11    -1     0     0     0     0  0.0000000000e+00  0.0000000000e+00  2.5000000000e+01  2.5000000000e+01  0.0000000000e+00 0. 9.
      -11    -1     0     0     0     0  0.0000000000e+00  0.0000000000e+00 -2.5000000000e+01  2.5000000000e+01  0.0000000000e+00 0. 9.
       23     2     1     2     0     0  0.0000000000e+00  0.0000000000e+00  0.0000000000e+00  5.0000000000e+01  5.0000000000e+01 0. 9.
        2     1     3     0   101     0  4.0969909635e+00  2.1134939488e+01 -1.2705120932e+01  2.5000000000e+01  3.3000000000e-01 0. 9.
       -2     1     3     0     0   101 -4.0969909635e+00 -2.1134939488e+01  1.2705120932e+01  2.5000000000e+01  3.3000000000e-01 0. 9.
#pdf   11  -11  1.000000e+00  1.000000e+00  5.000000e+01  1.000000e+00  1.000000e+00
</event>
<event>
     5  9999  1.000000e+00  5.000000e+01  7.764622e-03  1.436968e-01
       11    -1     0     0     0     0  0.0000000000e+00  0.0000000000e+00  2.5000000000e+01  2.5000000000e+01  0.0000000000e+00 0. 9.
      -11    -1     0     0     0     0  0.0000000000e+00  0.0000000000e+00 -2.5000000000e+01  2.5000000000e+01  0.0000000000e+00 0. 9.
       23     2     1     2     0     0  0.0000000000e+00  0.0000000000e+00  0.0000000000e+00  5.0000000000e+01  5.0000000000e+01 0. 9.
        2     1     3     0   101     0  2.1207620808e+01  3.7483050649e+00  1.2691655873e+01  2.5000000000e+01  3.3000000000e-01 0. 9.
       -2     1     3     0     0   101 -2.1207620808e+01 -3.7483050649e+00 -1.2691655873e+01  2.5000000000e+01  3.3000000000e-01 0. 9.
#pdf   11  -11  1.000000e+00  1.000000e+00  5.000000e+01  1.000000e+00  1.000000e+00
</event>
<event>
     5  9999  1.000000e+00  5.000000e+01  7.764622e-03  1.436968e-01
       11    -1     0     0     0     0  0.0000000000e+00  0.0000000000e+00  2.5000000000e+01  2.5000000000e+01  0.0000000000e+00 0. 9.
      -11    -1     0     0     0     0  0.0000000000e+00  0.0000000000e+00 -2.5000000000e+01  2.5000000000e+01  0.0000000000e+00 0. 9.
       23     2     1     2     0     0  0.0000000000e+00  0.0000000000e+00  0.0000000000e+00  5.0000000000e+01  5.0000000000e+01 0. 9.
        2     1     3     0   101     0  1.7711862062e+01 -6.5580336354e+00 -1.6375995760e+01  2.5000000000e+01  3.3000000000e-01 0. 9.
       -2     1     3     0     0   101 -1.7711862062e+01  6.5580336354e+00  1.6375995760e+01  2.5000000000e+01  3.3000000000e-01 0. 9.
#pdf   11  -11  1.000000e+00  1.000000e+00  5.000000e+01  1.000000e+00  1.000000e+00
</event>
<event>
     5  9999  1.000000e+00  5.000000e+01  7.764622e-03  1.436968e-01
       11    -1     0     0     0     0  0.0000000000e+00  0.0000000000e+00  2.5000000000e+01  2.5000000000e+01  0.0000000000e+00 0. 9.
      -11    -1     0     0     0     0  0.0000000000e+00  0.0000000000e+00 -2.5000000000e+01  2.5000000000e+01  0.0000000000e+00 0. 9.
       23     2     1     2     0     0  0.0000000000e+00  0.0000000000e+00  0.0000000000e+00  5.0000000000e+01  5.0000000000e+01 0. 9.
        2     1     3     0   101     0 -2.4184554015e+01  5.9228034765e+00  2.2178471686e+00  2.5000000000e+01  3.3000000000e-01 0. 9.
       -2     1     3     0     0   101  2.4184554015e+01 -5.9228034765e+00 -2.2178471686e+00  2.5000000000e+01  3.3000000000e-01 0. 9.
#pdf   11  -11  1.000000e+00  1.000000e+00  5.000000e+01  1.000000e+00  1.000000e+00
</event>
<event>
     5  9999  1.000000e+00  5.000000e+01  7.764622e-03  1.436968e-01
       11    -1     0     0     0     0  0.0000000000e+00  0.0000000000e+00  2.5000000000e+01  2.5000000000e+01  0.0000000000e+00 0. 9.
      -11    -1     0     0     0     0  0.0000000000e+00  0.0000000000e+00 -2.5000000000e+01  2.5000000000e+01  0.0000000000e+00 0. 9.
       23     2     1     2     0     0  0.0000000000e+00  0.0000000000e+00  0.0000000000e+00  5.0000000000e+01  5.0000000000e+01 0. 9.
        2     1     3     0   101     0 -1.8818864202e+01  1.4901696784e+01 -6.9771687036e+00  2.5000000000e+01  3.3000000000e-01 0. 9.
       -2     1     3     0     0   101  1.8818864202e+01 -1.4901696784e+01  6.9771687036e+00  2.5000000000e+01  3.3000000000e-01 0. 9.
#pdf   11  -11  1.000000e+00  1.000000e+00  5.000000e+01  1.000000e+00  1.000000e+00
</event>
<event>
     5  9999  1.000000e+00  5.000000e+01  7.764622e-03  1.436968e-01
       11    -1     0     0     0     0  0.0000000000e+00  0.0000000000e+00  2.5000000000e+01  2.5000000000e+01  0.0000000000e+00 0. 9.
      -11    -1     0     0     0     0  0.0000000000e+00  0.0000000000e+00 -2.5000000000e+01  2.5000000000e+01  0.0000000000e+00 0. 9.
       23     2     1     2     0     0  0.0000000000e+00  0.0000000000e+00  0.0000000000e+00  5.0000000000e+01  5.0000000000e+01 0. 9.
        2     1     3     0   101     0  9.7720005370e+00 -1.2628189778e+01  1.9233510559e+01  2.5000000000e+01  3.3000000000e-01 0. 9.
       -2     1     3     0     0   101 -9.7720005370e+00  1.2628189778e+01 -1.9233510559e+01  2.5000000000e+01  3.3000000000e-01 0. 9.
#pdf   11  -11  1.000000e+00  1.000000e+00  5.000000e+01  1.000000e+00  1.000000e+00
</event>
<event>
     5  9999  1.000000e+00  5.000000e+01  7.764622e-03  1.436968e-01
       11    -1     0     0     0     0  0.0000000000e+00  0.0000000000e+00  2.5000000000e+01  2.5000000000e+01  0.0000000000e+00 0. 9.
      -11    -1     0     0     0     0  0.0000000000e+00  0.0000000000e+00 -2.5000000000e+01  2.5000000000e+01  0.0000000000e+00 0. 9.
       23     2     1     2     0     0  0.0000000000e+00  0.0000000000e+00  0.0000000000e+00  5.0000000000e+01  5.0000000000e+01 0. 9.
        2     1     3     0   101     0  1.6362211968e+01  1.6011385934e+01 -1.0040151393e+01  2.5000000000e+01  3.3000000000e-01 0. 9.
       -2     1     3     0     0   101 -1.6362211968e+01 -1.6011385934e+01  1.0040151393e+01  2.5000000000e+01  3.3000000000e-01 0. 9.
#pdf   11  -11  1.000000e+00  1.000000e+00  5.000000e+01  1.000000e+00  1.000000e+00
</event>
<event>
     5  9999  1.000000e+00  5.000000e+01  7.764622e-03  1.436968e-01
       11    -1     0     0     0     0  0.0000000000e+00  0.0000000000e+00  2.5000000000e+01  2.5000000000e+01  0.0000000000e+00 0. 9.
      -11    -1     0     0     0     0  0.0000000000e+00  0.0000000000e+00 -2.5000000000e+01  2.5000000000e+01  0.0000000000e+00 0. 9.
       23     2     1     2     0     0  0.0000000000e+00  0.0000000000e+00  0.0000000000e+00  5.0000000000e+01  5.0000000000e+01 0. 9.
        2     1     3     0   101     0  2.0103870517e+01 -8.5049663173e-02  1.4856589676e+01  2.5000000000e+01  3.3000000000e-01 0. 9.
       -2     1     3     0     0   101 -2.0103870517e+01  8.5049663173e-02 -1.4856589676e+01  2.5000000000e+01  3.3000000000e-01 0. 9.
#pdf   11  -11  1.000000e+00  1.000000e+00  5.000000e+01  1.000000e+00  1.000000e+00
</event>
<event>
     5  9999  1.000000e+00  5.000000e+01  7.764622e-03  1.436968e-01
       11    -1     0     0     0     0  0.0000000000e+00  0.0000000000e+00  2.5000000000e+01  2.5000000000e+01  0.0000000000e+00 0. 9.
      -11    -1     0     0     0     0  0.0000000000e+00  0.0000000000e+00 -2.5000000000e+01  2.5000000000e+01  0.0000000000e+00 0. 9.
       23     2     1     2     0     0  0.0000000000e+00  0.0000000000e+00  0.0000000000e+00  5.0000000000e+01  5.0000000000e+01 0. 9.
        2     1     3     0   101     0 -9.1185367040e+00  1.3501544343e+01  1.8959211184e+01  2.5000000000e+01  3.3000000000e-01 0. 9.
       -2     1     3     0     0   101  9.1185367040e+00 -1.3501544343e+01 -1.8959211184e+01  2.5000000000e+01  3.3000000000e-01 0. 9.
#pdf   11  -11  1.000000e+00  1.000000e+00  5.000000e+01  1.000000e+00  1.000000e+00
</event>
<event>
     5  9999  1.000000e+00  5.000000e+01  7.764622e-03  1.436968e-01
       11    -1     0     0     0     0  0.0000000000e+00  0.0000000000e+00  2.5000000000e+01  2.5000000000e+01  0.0000000000e+00 0. 9.
      -11    -1     0     0     0     0  0.0000000000e+00  0.0000000000e+00 -2.5000000000e+01  2.5000000000e+01  0.0000000000e+00 0. 9.
       23     2     1     2     0     0  0.0000000000e+00  0.0000000000e+00  0.0000000000e+00  5.0000000000e+01  5.0000000000e+01 0. 9.
        2     1     3     0   101     0  2.2041260723e+01  5.7662889508e+00 -1.0287071374e+01  2.5000000000e+01  3.3000000000e-01 0. 9.
       -2     1     3     0     0   101 -2.2041260723e+01 -5.7662889508e+00  1.0287071374e+01  2.5000000000e+01  3.3000000000e-01 0. 9.
#pdf   11  -11  1.000000e+00  1.000000e+00  5.000000e+01  1.000000e+00  1.000000e+00
</event>
<event>
     5  9999  1.000000e+00  5.000000e+01  7.764622e-03  1.436968e-01
       11    -1     0     0     0     0  0.0000000000e+00  0.0000000000e+00  2.5000000000e+01  2.5000000000e+01  0.0000000000e+00 0. 9.
      -11    -1     0     0     0     0  0.0000000000e+00  0.0000000000e+00 -2.5000000000e+01  2.5000000000e+01  0.0000000000e+00 0. 9.
       23     2     1     2     0     0  0.0000000000e+00  0.0000000000e+00  0.0000000000e+00  5.0000000000e+01  5.0000000000e+01 0. 9.
        2     1     3     0   101     0 -1.5290456722e+01 -9.2572512044e+00 -1.7475592504e+01  2.5000000000e+01  3.3000000000e-01 0. 9.
       -2     1     3     0     0   101  1.5290456722e+01  9.2572512044e+00  1.7475592504e+01  2.5000000000e+01  3.3000000000e-01 0. 9.
#pdf   11  -11  1.000000e+00  1.000000e+00  5.000000e+01  1.000000e+00  1.000000e+00
</event>
<event>
     5  9999  1.000000e+00  5.000000e+01  7.764622e-03  1.436968e-01
       11    -1     0     0     0     0  0.0000000000e+00  0.0000000000e+00  2.5000000000e+01  2.5000000000e+01  0.0000000000e+00 0. 9.
      -11    -1     0     0     0     0  0.0000000000e+00  0.0000000000e+00 -2.5000000000e+01  2.5000000000e+01  0.0000000000e+00 0. 9.
       23     2     1     2     0     0  0.0000000000e+00  0.0000000000e+00  0.0000000000e+00  5.0000000000e+01  5.0000000000e+01 0. 9.
        2     1     3     0   101     0  1.2701334794e+00 -2.4529207664e+00  2.4844738692e+01  2.5000000000e+01  3.3000000000e-01 0. 9.
       -2     1     3     0     0   101 -1.2701334794e+00  2.4529207664e+00 -2.4844738692e+01  2.5000000000e+01  3.3000000000e-01 0. 9.
#pdf   11  -11  1.000000e+00  1.000000e+00  5.000000e+01  1.000000e+00  1.000000e+00
</event>
<event>
     5  9999  1.000000e+00  5.000000e+01  7.764622e-03  1.436968e-01
       11    -1     0     0     0     0  0.0000000000e+00  0.0000000000e+00  2.5000000000e+01  2.5000000000e+01  0.0000000000e+00 0. 9.
      -11    -1     0     0     0     0  0.0000000000e+00  0.0000000000e+00 -2.5000000000e+01  2.5000000000e+01  0.0000000000e+00 0. 9.
       23     2     1     2     0     0  0.0000000000e+00  0.0000000000e+00  0.0000000000e+00  5.0000000000e+01  5.0000000000e+01 0. 9.
        2     1     3     0   101     0  5.0565418869e+00 -1.2350450952e+01 -2.1137380288e+01  2.5000000000e+01  3.3000000000e-01 0. 9.
       -2     1     3     0     0   101 -5.0565418869e+00  1.2350450952e+01  2.1137380288e+01  2.5000000000e+01  3.3000000000e-01 0. 9.
#pdf   11  -11  1.000000e+00  1.000000e+00  5.000000e+01  1.000000e+00  1.000000e+00
</event>
<event>
     5  9999  1.000000e+00  5.000000e+01  7.764622e-03  1.436968e-01
       11    -1     0     0     0     0  0.0000000000e+00  0.0000000000e+00  2.5000000000e+01  2.5000000000e+01  0.0000000000e+00 0. 9.
      -11    -1     0     0     0     0  0.0000000000e+00  0.0000000000e+00 -2.5000000000e+01  2.5000000000e+01  0.0000000000e+00 0. 9.
       23     2     1     2     0     0  0.0000000000e+00  0.0000000000e+00  0.0000000000e+00  5.0000000000e+01  5.0000000000e+01 0. 9.
        2     1     3     0   101     0 -1.7361443154e+01  2.1002187181e+00 -1.7862263937e+01  2.5000000000e+01  3.3000000000e-01 0. 9.
       -2     1     3     0     0   101  1.7361443154e+01 -2.1002187181e+00  1.7862263937e+01  2.5000000000e+01  3.3000000000e-01 0. 9.
#pdf   11  -11  1.000000e+00  1.000000e+00  5.000000e+01  1.000000e+00  1.000000e+00
</event>
<event>
     5  9999  1.000000e+00  5.000000e+01  7.764622e-03  1.436968e-01
       11    -1     0     0     0     0  0.0000000000e+00  0.0000000000e+00  2.5000000000e+01  2.5000000000e+01  0.0000000000e+00 0. 9.
      -11    -1     0     0     0     0  0.0000000000e+00  0.0000000000e+00 -2.5000000000e+01  2.5000000000e+01  0.0000000000e+00 0. 9.
       23     2     1     2     0     0  0.0000000000e+00  0.0000000000e+00  0.0000000000e+00  5.0000000000e+01  5.0000000000e+01 0. 9.
        2     1     3     0   101     0  8.7693151893e+00  4.8350771536e+00 -2.2904415296e+01  2.5000000000e+01  3.3000000000e-01 0. 9.
       -2     1     3     0     0   101 -8.7693151893e+00 -4.8350771536e+00  2.2904415296e+01  2.5000000000e+01  3.3000000000e-01 0. 9.
#pdf   11  -11  1.000000e+00  1.000000e+00  5.000000e+01  1.000000e+00  1.000000e+00
</event>
<event>
     5  9999  1.000000e+00  5.000000e+01  7.764622e-03  1.436968e-01
       11    -1     0     0     0     0  0.0000000000e+00  0.0000000000e+00  2.5000000000e+01  2.5000000000e+01  0.0000000000e+00 0. 9.
      -11    -1     0     0     0     0  0.0000000000e+00  0.0000000000e+00 -2.5000000000e+01  2.5000000000e+01  0.0000000000e+00 0. 9.
       23     2     1     2     0     0  0.0000000000e+00  0.0000000000e+00  0.0000000000e+00  5.0000000000e+01  5.0000000000e+01 0. 9.
        2     1     3     0   101     0 -4.0230612633e+00  2.3074821331e+01 -8.7326226649e+00  2.5000000000e+01  3.3000000000e-01 0. 9.
       -2     1     3     0     0   101  4.0230612633e+00 -2.3074821331e+01  8.7326226649e+00  2.5000000000e+01  3.3000000000e-01 0. 9.
#pdf   11  -11  1.000000e+00  1.000000e+00  5.000000e+01  1.000000e+00  1.000000e+00
</event>
<event>
     5  9999  1.000000e+00  5.000000e+01  7.764622e-03  1.436968e-01
       11    -1     0     0     0     0  0.0000000000e+00  0.0000000000e+00  2.5000000000e+01  2.5000000000e+01  0.0000000000e+00 0. 9.
      -11    -1     0     0     0     0  0.0000000000e+00  0.0000000000e+00 -2.5000000000e+01  2.5000000000e+01  0.0000000000e+00 0. 9.
       23     2     1     2     0     0  0.0000000000e+00  0.0000000000e+00  0.0000000000e+00  5.0000000000e+01  5.0000000000e+01 0. 9.
        2     1     3     0   101     0  1.2959653128e+01  1.8559195316e+01 -1.0606354700e+01  2.5000000000e+01  3.3000000000e-01 0. 9.
       -2     1     3     0     0   101 -1.2959653128e+01 -1.8559195316e+01  1.0606354700e+01  2.5000000000e+01  3.3000000000e-01 0. 9.
#pdf   11  -11  1.000000e+00  1.000000e+00  5.000000e+01  1.000000e+00  1.000000e+00
</event>
<event>
     5  9999  1.000000e+00  5.000000e+01  7.764622e-03  1.436968e-01
       11    -1     0     0     0     0  0.0000000000e+00  0.0000000000e+00  2.5000000000e+01  2.5000000000e+01  0.0000000000e+00 0. 9.
      -11    -1     0     0     0     0  0.0000000000e+00  0.0000000000e+00 -2.5000000000e+01  2.5000000000e+01  0.0000000000e+00 0. 9.
       23     2     1     2     0     0  0.0000000000e+00  0.0000000000e+00  0.0000000000e+00  5.0000000000e+01  5.0000000000e+01 0. 9.
        2     1     3     0   101     0 -6.5721866758e+00 -2.2443541658e+01  8.8309059640e+00  2.5000000000e+01  3.3000000000e-01 0. 9.
       -2     1     3     0     0   101  6.5721866758e+00  2.2443541658e+01 -8.8309059640e+00  2.5000000000e+01  3.3000000000e-01 0. 9.
#pdf   11  -11  1.000000e+00  1.000000e+00  5.000000e+01  1.000000e+00  1.000000e+00
</event>
<event>
     5  9999  1.000000e+00  5.000000e+01  7.764622e-03  1.436968e-01
       11    -1     0     0     0     0  0.0000000000e+00  0.0000000000e+00  2.5000000000e+01  2.5000000000e+01  0.0000000000e+00 0. 9.
      -11    -1     0     0     0     0  0.0000000000e+00  0.0000000000e+00 -2.5000000000e+01  2.5000000000e+01  0.0000000000e+00 0. 9.
       23     2     1     2     0     0  0.0000000000e+00  0.0000000000e+00  0.0000000000e+00  5.0000000000e+01  5.0000000000e+01 0. 9.
        2     1     3     0   101     0 -3.6679254876e+00  2.0612443112e+01 -1.3658865677e+01  2.5000000000e+01  3.3000000000e-01 0. 9.
       -2     1     3     0     0   101  3.6679254876e+00 -2.0612443112e+01  1.3658865677e+01  2.5000000000e+01  3.3000000000e-01 0. 9.
#pdf   11  -11  1.000000e+00  1.000000e+00  5.000000e+01  1.000000e+00  1.000000e+00
</event>
<event>
     5  9999  1.000000e+00  5.000000e+01  7.764622e-03  1.436968e-01
       11    -1     0     0     0     0  0.0000000000e+00  0.0000000000e+00  2.5000000000e+01  2.5000000000e+01  0.0000000000e+00 0. 9.
      -11    -1     0     0     0     0  0.0000000000e+00  0.0000000000e+00 -2.5000000000e+01  2.5000000000e+01  0.0000000000e+00 0. 9.
       23     2     1     2     0     0  0.0000000000e+00  0.0000000000e+00  0.0000000000e+00  5.0000000000e+01  5.0000000000e+01 0. 9.
        2     1     3     0   101     0 -1.4869069302e+01 -5.1255117804e+00  1.9430157155e+01  2.5000000000e+01  3.3000000000e-01 0. 9.
       -2     1     3     0     0   101  1.4869069302e+01  5.1255117804e+00 -1.9430157155e+01  2.5000000000e+01  3.3000000000e-01 0. 9.
#pdf   11  -11  1.000000e+00  1.000000e+00  5.000000e+01  1.000000e+00  1.000000e+00
</event>
<event>
     5  9999  1.000000e+00  5.000000e+01  7.764622e-03  1.436968e-01
       11    -1     0     0     0     0  0.0000000000e+00  0.0000000000e+00  2.5000000000e+01  2.5000000000e+01  0.0000000000e+00 0. 9.
      -11    -1     0     0     0     0  0.0000000000e+00  0.0000000000e+00 -2.5000000000e+01  2.5000000000e+01  0.0000000000e+00 0. 9.
       23     2     1     2     0     0  0.0000000000e+00  0.0000000000e+00  0.0000000000e+00  5.0000000000e+01  5.0000000000e+01 0. 9.
        2     1     3     0   101     0 -2.3336375027e+01  5.8626487418e+00 -6.7774663633e+00  2.5000000000e+01  3.3000000000e-01 0. 9.
       -2     1     3     0     0   101  2.3336375027e+01 -5.8626487418e+00  6.7774663633e+00  2.5000000000e+01  3.3000000000e-01 0. 9.
#pdf   11  -11  1.000000e+00  1.000000e+00  5.000000e+01  1.000000e+00  1.000000e+00
</event>
<event>
     5  9999  1.000000e+00  5.000000e+01  7.764622e-03  1.436968e-01
       11    -1     0     0     0     0  0.0000000000e+00  0.0000000000e+00  2.5000000000e+01  2.5000000000e+01  0.0000000000e+00 0. 9.
      -11    -1     0     0     0     0  0.0000000000e+00  0.0000000000e+00 -2.5000000000e+01  2.5000000000e+01  0.0000000000e+00 0. 9.
       23     2     1     2     0     0  0.0000000000e+00  0.0000000000e+00  0.0000000000e+00  5.0000000000e+01  5.0000000000e+01 0. 9.
        2     1     3     0   101     0  8.3245724563e+00  1.6995619363e+01 -1.6332223238e+01  2.5000000000e+01  3.3000000000e-01 0. 9.
       -2     1     3     0     0   101 -8.3245724563e+00 -1.6995619363e+01  1.6332223238e+01  2.5000000000e+01  3.3000000000e-01 0. 9.
#pdf   11  -11  1.000000e+00  1.000000e+00  5.000000e+01  1.000000e+00  1.000000e+00
</event>
<event>
     5  9999  1.000000e+00  5.000000e+01  7.764622e-03  1.436968e-01
       11    -1     0     0     0     0  0.0000000000e+00  0.0000000000e+00  2.5000000000e+01  2.5000000000e+01  0.0000000000e+00 0. 9.
      -11    -1     0     0     0     0  0.0000000000e+00  0.0000000000e+00 -2.5000000000e+01  2.5000000000e+01  0.0000000000e+00 0. 9.
       23     2     1     2     0     0  0.0000000000e+00  0.0000000000e+00  0.0000000000e+00  5.0000000000e+01  5.0000000000e+01 0. 9.
        2     1     3     0   101     0  1.1207486191e+01 -1.9554259144e+01  1.0812691738e+01  2.5000000000e+01  3.3000000000e-01 0. 9.
       -2     1     3     0     0   101 -1.1207486191e+01  1.9554259144e+01 -1.0812691738e+01  2.5000000000e+01  3.3000000000e-01 0. 9.
#pdf   11  -11  1.000000e+00  1.000000e+00  5.000000e+01  1.000000e+00  1.000000e+00
</event>
<event>
     5  9999  1.000000e+00  5.000000e+01  7.764622e-03  1.436968e-01
       11    -1     0     0     0     0  0.0000000000e+00  0.0000000000e+00  2.5000000000e+01  2.5000000000e+01  0.0000000000e+00 0. 9.
      -11    -1     0     0     0     0  0.0000000000e+00  0.0000000000e+00 -2.5000000000e+01  2.5000000000e+01  0.0000000000e+00 0. 9.
       23     2     1     2     0     0  0.0000000000e+00  0.0000000000e+00  0.0000000000e+00  5.0000000000e+01  5.0000000000e+01 0. 9.
        2     1     3     0   101     0  6.1382664601e-01  1.4401727145e+01 -2.0423138155e+01  2.5000000000e+01  3.3000000000e-01 0. 9.
       -2     1     3     0     0   101 -6.1382664601e-01 -1.4401727145e+01  2.0423138155e+01  2.5000000000e+01  3.3000000000e-01 0. 9.
#pdf   11  -11  1.000000e+00  1.000000e+00  5.000000e+01  1.000000e+00  1.000000e+00
</event>
<event>
     5  9999  1.000000e+00  5.000000e+01  7.764622e-03  1.436968e-01
       11    -1     0     0     0     0  0.0000000000e+00  0.0000000000e+00  2.5000000000e+01  2.5000000000e+01  0.0000000000e+00 0. 9.
      -11    -1     0     0     0     0  0.0000000000e+00  0.0000000000e+00 -2.5000000000e+01  2.5000000000e+01  0.0000000000e+00 0. 9.
       23     2     1     2     0     0  0.0000000000e+00  0.0000000000e+00  0.0000000000e+00  5.0000000000e+01  5.0000000000e+01 0. 9.
        2     1     3     0   101     0 -1.4186805855e+01 -1.4883341864e+00 -2.0528285388e+01  2.5000000000e+01  3.3000000000e-01 0. 9.
       -2     1     3     0     0   101  1.4186805855e+01  1.4883341864e+00  2.0528285388e+01  2.5000000000e+01  3.3000000000e-01 0. 9.
#pdf   11  -11  1.000000e+00  1.000000e+00  5.000000e+01  1.000000e+00  1.000000e+00
</event>
<event>
     5  9999  1.000000e+00  5.000000e+01  7.764622e-03  1.436968e-01
       11    -1     0     0     0     0  0.0000000000e+00  0.0000000000e+00  2.5000000000e+01  2.5000000000e+01  0.0000000000e+00 0. 9.
      -11    -1     0     0     0     0  0.0000000000e+00  0.0000000000e+00 -2.5000000000e+01  2.5000000000e+01  0.0000000000e+00 0. 9.
       23     2     1     2     0     0  0.0000000000e+00  0.0000000000e+00  0.0000000000e+00  5.0000000000e+01  5.0000000000e+01 0. 9.
        2     1     3     0   101     0 -9.0630817153e+00  1.1203112400e+01 -2.0426500492e+01  2.5000000000e+01  3.3000000000e-01 0. 9.
       -2     1     3     0     0   101  9.0630817153e+00 -1.1203112400e+01  2.0426500492e+01  2.5000000000e+01  3.3000000000e-01 0. 9.
#pdf   11  -11  1.000000e+00  1.000000e+00  5.000000e+01  1.000000e+00  1.000000e+00
</event>
<event>
     5  9999  1.000000e+00  5.000000e+01  7.764622e-03  1.436968e-01
       11    -1     0     0     0     0  0.0000000000e+00  0.0000000000e+00  2.5000000000e+01  2.5000000000e+01  0.0000000000e+00 0. 9.
      -11    -1     0     0     0     0  0.0000000000e+00  0.0000000000e+00 -2.5000000000e+01  2.5000000000e+01  0.0000000000e+00 0. 9.
       23     2     1     2     0     0  0.0000000000e+00  0.0000000000e+00  0.0000000000e+00  5.0000000000e+01  5.0000000000e+01 0. 9.
        2     1     3     0   101     0  1.8743235492e+01 -1.5939632469e+01  4.4170510600e+00  2.5000000000e+01  3.3000000000e-01 0. 9.
       -2     1     3     0     0   101 -1.8743235492e+01  1.5939632469e+01 -4.4170510600e+00  2.5000000000e+01  3.3000000000e-01 0. 9.
#pdf   11  -11  1.000000e+00  1.000000e+00  5.000000e+01  1.000000e+00  1.000000e+00
</event>
<event>
     5  9999  1.000000e+00  5.000000e+01  7.764622e-03  1.436968e-01
       11    -1     0     0     0     0  0.0000000000e+00  0.0000000000e+00  2.5000000000e+01  2.5000000000e+01  0.0000000000e+00 0. 9.
      -11    -1     0     0     0     0  0.0000000000e+00  0.0000000000e+00 -2.5000000000e+01  2.5000000000e+01  0.0000000000e+00 0. 9.
       23     2     1     2     0     0  0.0000000000e+00  0.0000000000e+00  0.0000000000e+00  5.0000000000e+01  5.0000000000e+01 0. 9.
        2     1     3     0   101     0 -4.6809196966e+00  2.2128439626e+01 -1.0644822710e+01  2.5000000000e+01  3.3000000000e-01 0. 9.
       -2     1     3     0     0   101  4.6809196966e+00 -2.2128439626e+01  1.0644822710e+01  2.5000000000e+01  3.3000000000e-01 0. 9.
#pdf   11  -11  1.000000e+00  1.000000e+00  5.000000e+01  1.000000e+00  1.000000e+00
</event>
<event>
     5  9999  1.000000e+00  5.000000e+01  7.764622e-03  1.436968e-01
       11    -1     0     0     0     0  0.0000000000e+00  0.0000000000e+00  2.5000000000e+01  2.5000000000e+01  0.0000000000e+00 0. 9.
      -11    -1     0     0     0     0  0.0000000000e+00  0.0000000000e+00 -2.5000000000e+01  2.5000000000e+01  0.0000000000e+00 0. 9.
       23     2     1     2     0     0  0.0000000000e+00  0.0000000000e+00  0.0000000000e+00  5.0000000000e+01  5.0000000000e+01 0. 9.
        2     1     3     0   101     0 -2.6871917365e+00  2.3495349591e+01  8.1017682128e+00  2.5000000000e+01  3.3000000000e-01 0. 9.
       -2     1     3     0     0   101  2.6871917365e+00 -2.3495349591e+01 -8.1017682128e+00  2.5000000000e+01  3.3000000000e-01 0. 9.
#pdf   11  -11  1.000000e+00  1.000000e+00  5.000000e+01  1.000000e+00  1.000000e+00
</event>
<event>
     5  9999  1.000000e+00  5.000000e+01  7.764622e-03  1.436968e-01
       11    -1     0     0     0     0  0.0000000000e+00  0.0000000000e+00  2.5000000000e+01  2.5000000000e+01  0.0000000000e+00 0. 9.
      -11    -1     0     0     0     0  0.0000000000e+00  0.0000000000e+00 -2.5000000000e+01  2.5000000000e+01  0.0000000000e+00 0. 9.
       23     2     1     2     0     0  0.0000000000e+00  0.0000000000e+00  0.0000000000e+00  5.0000000000e+01  5.0000000000e+01 0. 9.
        2     1     3     0   101     0 -1.5867544974e+00  1.9676720978e+00 -2.4869691930e+01  2.5000000000e+01  3.3000000000e-01 0. 9.
       -2     1     3     0     0   101  1.5867544974e+00 -1.9676720978e+00  2.4869691930e+01  2.5000000000e+01  3.3000000000e-01 0. 9.
#pdf   11  -11  1.000000e+00  1.000000e+00  5.000000e+01  1.000000e+00  1.000000e+00
</event>
<event>
     5  9999  1.000000e+00  5.000000e+01  7.764622e-03  1.436968e-01
       11    -1     0     0     0     0  0.0000000000e+00  0.0000000000e+00  2.5000000000e+01  2.5000000000e+01  0.0000000000e+00 0. 9.
      -11    -1     0     0     0     0  0.0000000000e+00  0.0000000000e+00 -2.5000000000e+01  2.5000000000e+01  0.0000000000e+00 0. 9.
       23     2     1     2     0     0  0.0000000000e+00  0.0000000000e+00  0.0000000000e+00  5.0000000000e+01  5.0000000000e+01 0. 9.
        2     1     3     0   101     0 -1.3066890403e+00 -8.8091225784e+00 -2.3357718706e+01  2.5000000000e+01  3.3000000000e-01 0. 9.
       -2     1     3     0     0   101  1.3066890403e+00  8.8091225784e+00  2.3357718706e+01  2.5000000000e+01  3.3000000000e-01 0. 9.
#pdf   11  -11  1.000000e+00  1.000000e+00  5.000000e+01  1.000000e+00  1.000000e+00
</event>
<event>
     5  9999  1.000000e+00  5.000000e+01  7.764622e-03  1.436968e-01
       11    -1     0     0     0     0  0.0000000000e+00  0.0000000000e+00  2.5000000000e+01  2.5000000000e+01  0.0000000000e+00 0. 9.
      -11    -1     0     0     0     0  0.0000000000e+00  0.0000000000e+00 -2.5000000000e+01  2.5000000000e+01  0.0000000000e+00 0. 9.
       23     2     1     2     0     0  0.0000000000e+00  0.0000000000e+00  0.0000000000e+00  5.0000000000e+01  5.0000000000e+01 0. 9.
        2     1     3     0   101     0  2.9505388685e+00 -1.7851474504e+01 -1.7248486264e+01  2.5000000000e+01  3.3000000000e-01 0. 9.
       -2     1     3     0     0   101 -2.9505388685e+00  1.7851474504e+01  1.7248486264e+01  2.5000000000e+01  3.3000000000e-01 0. 9.
#pdf   11  -11  1.000000e+00  1.000000e+00  5.000000e+01  1.000000e+00  1.000000e+00
</event>
<event>
     5  9999  1.000000e+00  5.000000e+01  7.764622e-03  1.436968e-01
       11    -1     0     0     0     0  0.0000000000e+00  0.0000000000e+00  2.5000000000e+01  2.5000000000e+01  0.0000000000e+00 0. 9.
      -11    -1     0     0     0     0  0.0000000000e+00  0.0000000000e+00 -2.5000000000e+01  2.5000000000e+01  0.0000000000e+00 0. 9.
       23     2     1     2     0     0  0.0000000000e+00  0.0000000000e+00  0.0000000000e+00  5.0000000000e+01  5.0000000000e+01 0. 9.
        2     1     3     0   101     0 -7.7112786941e+00 -9.5640061358e+00 -2.1770555058e+01  2.5000000000e+01  3.3000000000e-01 0. 9.
       -2     1     3     0     0   101  7.7112786941e+00  9.5640061358e+00  2.1770555058e+01  2.5000000000e+01  3.3000000000e-01 0. 9.
#pdf   11  -11  1.000000e+00  1.000000e+00  5.000000e+01  1.000000e+00  1.000000e+00
</event>
<event>
     5  9999  1.000000e+00  5.000000e+01  7.764622e-03  1.436968e-01
       11    -1     0     0     0     0  0.0000000000e+00  0.0000000000e+00  2.5000000000e+01  2.5000000000e+01  0.0000000000e+00 0. 9.
      -11    -1     0     0     0     0  0.0000000000e+00  0.0000000000e+00 -2.5000000000e+01  2.5000000000e+01  0.0000000000e+00 0. 9.
       23     2     1     2     0     0  0.0000000000e+00  0.0000000000e+00  0.0000000000e+00  5.0000000000e+01  5.0000000000e+01 0. 9.
        2     1     3     0   101     0  1.0842814687e+01  2.0014894283e+01  1.0330947513e+01  2.5000000000e+01  3.3000000000e-01 0. 9.
       -2     1     3     0     0   101 -1.0842814687e+01 -2.0014894283e+01 -1.0330947513e+01  2.5000000000e+01  3.3000000000e-01 0. 9.
#pdf   11  -11  1.000000e+00  1.000000e+00  5.000000e+01  1.000000e+00  1.000000e+00
</event>
<event>
     5  9999  1.000000e+00  5.000000e+01  7.764622e-03  1.436968e-01
       11    -1     0     0     0     0  0.0000000000e+00  0.0000000000e+00  2.5000000000e+01  2.5000000000e+01  0.0000000000e+00 0. 9.
      -11    -1     0     0     0     0  0.0000000000e+00  0.0000000000e+00 -2.5000000000e+01  2.5000000000e+01  0.0000000000e+00 0. 9.
       23     2     1     2     0     0  0.0000000000e+00  0.0000000000e+00  0.0000000000e+00  5.0000000000e+01  5.0000000000e+01 0. 9.
        2     1     3     0   101     0 -9.1466249417e+00  1.6456218777e+01  1.6444549727e+01  2.5000000000e+01  3.3000000000e-01 0. 9.
       -2     1     3     0     0   101  9.1466249417e+00 -1.6456218777e+01 -1.6444549727e+01  2.5000000000e+01  3.3000000000e-01 0. 9.
#pdf   11  -11  1.000000e+00  1.000000e+00  5.000000e+01  1.000000e+00  1.000000e+00
</event>
<event>
     5  9999  1.000000e+00  5.000000e+01  7.764622e-03  1.436968e-01
       11    -1     0     0     0     0  0.0000000000e+00  0.0000000000e+00  2.5000000000e+01  2.5000000000e+01  0.0000000000e+00 0. 9.
      -11    -1     0     0     0     0  0.0000000000e+00  0.0000000000e+00 -2.5000000000e+01  2.5000000000e+01  0.0000000000e+00 0. 9.
       23     2     1     2     0     0  0.0000000000e+00  0.0000000000e+00  0.0000000000e+00  5.0000000000e+01  5.0000000000e+01 0. 9.
        2     1     3     0   101     0 -1.1379191178e+01 -2.1664889630e+01 -5.1027115790e+00  2.5000000000e+01  3.3000000000e-01 0. 9.
       -2     1     3     0     0   101  1.1379191178e+01  2.1664889630e+01  5.1027115790e+00  2.5000000000e+01  3.3000000000e-01 0. 9.
#pdf   11  -11  1.000000e+00  1.000000e+00  5.000000e+01  1.000000e+00  1.000000e+00
</event>
<event>
     5  9999  1.000000e+00  5.000000e+01  7.764622e-03  1.436968e-01
       11    -1     0     0     0     0  0.0000000000e+00  0.0000000000e+00  2.5000000000e+01  2.5000000000e+01  0.0000000000e+00 0. 9.
      -11    -1     0     0     0     0  0.0000000000e+00  0.0000000000e+00 -2.5000000000e+01  2.5000000000e+01  0.0000000000e+00 0. 9.
       23     2     1     2     0     0  0.0000000000e+00  0.0000000000e+00  0.0000000000e+00  5.0000000000e+01  5.0000000000e+01 0. 9.
        2     1     3     0   101     0  9.5557438480e+00  5.6175006901e+00 -2.2405859624e+01  2.5000000000e+01  3.3000000000e-01 0. 9.
       -2     1     3     0     0   101 -9.5557438480e+00 -5.6175006901e+00  2.2405859624e+01  2.5000000000e+01  3.3000000000e-01 0. 9.
#pdf   11  -11  1.000000e+00  1.000000e+00  5.000000e+01  1.000000e+00  1.000000e+00
</event>
<event>
     5  9999  1.000000e+00  5.000000e+01  7.764622e-03  1.436968e-01
       11    -1     0     0     0     0  0.0000000000e+00  0.0000000000e+00  2.5000000000e+01  2.5000000000e+01  0.0000000000e+00 0. 9.
      -11    -1     0     0     0     0  0.0000000000e+00  0.0000000000e+00 -2.5000000000e+01  2.5000000000e+01  0.0000000000e+00 0. 9.
       23     2     1     2     0     0  0.0000000000e+00  0.0000000000e+00  0.0000000000e+00  5.0000000000e+01  5.0000000000e+01 0. 9.
        2     1     3     0   101     0  8.9160632791e+00 -1.9905234938e+01 -1.2213784740e+01  2.5000000000e+01  3.3000000000e-01 0. 9.
       -2     1     3     0     0   101 -8.9160632791e+00  1.9905234938e+01  1.2213784740e+01  2.5000000000e+01  3.3000000000e-01 0. 9.
#pdf   11  -11  1.000000e+00  1.000000e+00  5.000000e+01  1.000000e+00  1.000000e+00
</event>
<event>
     5  9999  1.000000e+00  5.000000e+01  7.764622e-03  1.436968e-01
       11    -1     0     0     0     0  0.0000000000e+00  0.0000000000e+00  2.5000000000e+01  2.5000000000e+01  0.0000000000e+00 0. 9.
      -11    -1     0     0     0     0  0.0000000000e+00  0.0000000000e+00 -2.5000000000e+01  2.5000000000e+01  0.0000000000e+00 0. 9.
       23     2     1     2     0     0  0.0000000000e+00  0.0000000000e+00  0.0000000000e+00  5.0000000000e+01  5.0000000000e+01 0. 9.
        2     1     3     0   101     0  3.9124899981e+00 -2.0776664961e+01  1.3338430009e+01  2.5000000000e+01  3.3000000000e-01 0. 9.
       -2     1     3     0     0   101 -3.9124899981e+00  2.0776664961e+01 -1.3338430009e+01  2.5000000000e+01  3.3000000000e-01 0. 9.
#pdf   11  -11  1.000000e+00  1.000000e+00  5.000000e+01  1.000000e+00  1.000000e+00
</event>
<event>
     5  9999  1.000000e+00  5.000000e+01  7.764622e-03  1.436968e-01
       11    -1     0     0     0     0  0.0000000000e+00  0.0000000000e+00  2.5000000000e+01  2.5000000000e+01  0.0000000000e+00 0. 9.
      -11    -1     0     0     0     0  0.0000000000e+00  0.0000000000e+00 -2.5000000000e+01  2.5000000000e+01  0.0000000000e+00 0. 9.
       23     2     1     2     0     0  0.0000000000e+00  0.0000000000e+00  0.0000000000e+00  5.0000000000e+01  5.0000000000e+01 0. 9.
        2     1     3     0   101     0  5.3772958519e+00  2.2069614504e+01  1.0435895025e+01  2.5000000000e+01  3.3000000000e-01 0. 9.
       -2     1     3     0     0   101 -5.3772958519e+00 -2.2069614504e+01 -1.0435895025e+01  2.5000000000e+01  3.3000000000e-01 0. 9.
#pdf   11  -11  1.000000e+00  1.000000e+00  5.000000e+01  1.000000e+00  1.000000e+00
</event>
<event>
     5  9999  1.000000e+00  5.000000e+01  7.764622e-03  1.436968e-01
       11    -1     0     0     0     0  0.0000000000e+00  0.0000000000e+00  2.5000000000e+01  2.5000000000e+01  0.0000000000e+00 0. 9.
      -11    -1     0     0     0     0  0.0000000000e+00  0.0000000000e+00 -2.5000000000e+01  2.5000000000e+01  0.0000000000e+00 0. 9.
       23     2     1     2     0     0  0.0000000000e+00  0.0000000000e+00  0.0000000000e+00  5.0000000000e+01  5.0000000000e+01 0. 9.
        2     1     3     0   101     0  6.4326612195e+00 -1.1851262993e+01 -2.1048979432e+01  2.5000000000e+01  3.3000000000e-01 0. 9.
       -2     1     3     0     0   101 -6.4326612195e+00  1.1851262993e+01  2.1048979432e+01  2.5000000000e+01  3.3000000000e-01 0. 9.
#pdf   11  -11  1.000000e+00  1.000000e+00  5.000000e+01  1.000000e+00  1.000000e+00
</event>
<event>
     5  9999  1.000000e+00  5.000000e+01  7.764622e-03  1.436968e-01
       11    -1     0     0     0     0  0.0000000000e+00  0.0000000000e+00  2.5000000000e+01  2.5000000000e+01  0.0000000000e+00 0. 9.
      -11    -1     0     0     0     0  0.0000000000e+00  0.0000000000e+00 -2.5000000000e+01  2.5000000000e+01  0.0000000000e+00 0. 9.
       23     2     1     2     0     0  0.0000000000e+00  0.0000000000e+00  0.0000000000e+00  5.0000000000e+01  5.0000000000e+01 0. 9.
        2     1     3     0   101     0  4.9952860243e+00  2.3393412191e+01  7.2585455561e+00  2.5000000000e+01  3.3000000000e-01 0. 9.
       -2     1     3     0     0   101 -4.9952860243e+00 -2.3393412191e+01 -7.2585455561e+00  2.5000000000e+01  3.3000000000e-01 0. 9.
#pdf   11  -11  1.000000e+00  1.000000e+00  5.000000e+01  1.000000e+00  1.000000e+00
</event>
<event>
     5  9999  1.000000e+00  5.000000e+01  7.764622e-03  1.436968e-01
       11    -1     0     0     0     0  0.0000000000e+00  0.0000000000e+00  2.5000000000e+01  2.5000000000e+01  0.0000000000e+00 0. 9.
      -11    -1     0     0     0     0  0.0000000000e+00  0.0000000000e+00 -2.5000000000e+01  2.5000000000e+01  0.0000000000e+00 0. 9.
       23     2     1     2     0     0  0.0000000000e+00  0.0000000000e+00  0.0000000000e+00  5.0000000000e+01  5.0000000000e+01 0. 9.
        2     1     3     0   101     0 -1.3227342595e+01  7.9690409687e+00 -1.9657642125e+01  2.5000000000e+01  3.3000000000e-01 0. 9.
       -2     1     3     0     0   101  1.3227342595e+01 -7.9690409687e+00  1.9657642125e+01  2.5000000000e+01  3.3000000000e-01 0. 9.
#pdf   11  -11  1.000000e+00  1.000000e+00  5.000000e+01  1.000000e+00  1.000000e+00
</event>
<event>
     5  9999  1.000000e+00  5.000000e+01  7.764622e-03  1.436968e-01
       11    -1     0     0     0     0  0.0000000000e+00  0.0000000000e+00  2.5000000000e+01  2.5000000000e+01  0.0000000000e+00 0. 9.
      -11    -1     0     0     0     0  0.0000000000e+00  0.0000000000e+00 -2.5000000000e+01  2.5000000000e+01  0.0000000000e+00 0. 9.
       23     2     1     2     0     0  0.0000000000e+00  0.0000000000e+00  0.0000000000e+00  5.0000000000e+01  5.0000000000e+01 0. 9.
        2     1     3     0   101     0 -2.0088513924e+01 -5.9478273567e+00  1.3636937268e+01  2.5000000000e+01  3.3000000000e-01 0. 9.
       -2     1     3     0     0   101  2.0088513924e+01  5.9478273567e+00 -1.3636937268e+01  2.5000000000e+01  3.3000000000e-01 0. 9.
#pdf   11  -11  1.000000e+00  1.000000e+00  5.000000e+01  1.000000e+00  1.000000e+00
</event>
<event>
     5  9999  1.000000e+00  5.000000e+01  7.764622e-03  1.436968e-01
       11    -1     0     0     0     0  0.0000000000e+00  0.0000000000e+00  2.5000000000e+01  2.5000000000e+01  0.0000000000e+00 0. 9.
      -11    -1     0     0     0     0  0.0000000000e+00  0.0000000000e+00 -2.5000000000e+01  2.5000000000e+01  0.0000000000e+00 0. 9.
       23     2     1     2     0     0  0.0000000000e+00  0.0000000000e+00  0.0000000000e+00  5.0000000000e+01  5.0000000000e+01 0. 9.
        2     1     3     0   101     0 -1.9748134495e+01 -1.4094970433e+01  6.0194760951e+00  2.5000000000e+01  3.3000000000e-01 0. 9.
       -2     1     3     0     0   101  1.9748134495e+01  1.4094970433e+01 -6.0194760951e+00  2.5000000000e+01  3.3000000000e-01 0. 9.
#pdf   11  -11  1.000000e+00  1.000000e+00  5.000000e+01  1.000000e+00  1.000000e+00
</event>
<event>
     5  9999  1.000000e+00  5.000000e+01  7.764622e-03  1.436968e-01
       11    -1     0     0     0     0  0.0000000000e+00  0.0000000000e+00  2.5000000000e+01  2.5000000000e+01  0.0000000000e+00 0. 9.
      -11    -1     0     0     0     0  0.0000000000e+00  0.0000000000e+00 -2.5000000000e+01  2.5000000000e+01  0.0000000000e+00 0. 9.
       23     2     1     2     0     0  0.0000000000e+00  0.0000000000e+00  0.0000000000e+00  5.0000000000e+01  5.0000000000e+01 0. 9.
        2     1     3     0   101     0  9.1611953122e+00 -1.4354465704e+01 -1.8300626076e+01  2.5000000000e+01  3.3000000000e-01 0. 9.
       -2     1     3     0     0   101 -9.1611953122e+00  1.4354465704e+01  1.8300626076e+01  2.5000000000e+01  3.3000000000e-01 0. 9.
#pdf   11  -11  1.000000e+00  1.000000e+00  5.000000e+01  1.000000e+00  1.000000e+00
</event>
<event>
     5  9999  1.000000e+00  5.000000e+01  7.764622e-03  1.436968e-01
       11    -1     0     0     0     0  0.0000000000e+00  0.0000000000e+00  2.5000000000e+01  2.5000000000e+01  0.0000000000e+00 0. 9.
      -11    -1     0     0     0     0  0.0000000000e+00  0.0000000000e+00 -2.5000000000e+01  2.5000000000e+01  0.0000000000e+00 0. 9.
       23     2     1     2     0     0  0.0000000000e+00  0.0000000000e+00  0.0000000000e+00  5.0000000000e+01  5.0000000000e+01 0. 9.
        2     1     3     0   101     0 -1.6487341825e+01  1.5537153400e+00  1.8725507422e+01  2.5000000000e+01  3.3000000000e-01 0. 9.
       -2     1     3     0     0   101  1.6487341825e+01 -1.5537153400e+00 -1.8725507422e+01  2.5000000000e+01  3.3000000000e-01 0. 9.
#pdf   11  -11  1.000000e+00  1.000000e+00  5.000000e+01  1.000000e+00  1.000000e+00
</event>
<event>
     5  9999  1.000000e+00  5.000000e+01  7.764622e-03  1.436968e-01
       11    -1     0     0     0     0  0.0000000000e+00  0.0000000000e+00  2.5000000000e+01  2.5000000000e+01  0.0000000000e+00 0. 9.
      -11    -1     0     0     0     0  0.0000000000e+00  0.0000000000e+00 -2.5000000000e+01  2.5000000000e+01  0.0000000000e+00 0. 9.
       23     2     1     2     0     0  0.0000000000e+00  0.0000000000e+00  0.0000000000e+00  5.0000000000e+01  5.0000000000e+01 0. 9.
        2     1     3     0   101     0  8.0732282420e+00  2.0597577480e+01 -1.1638465867e+01  2.5000000000e+01  3.3000000000e-01 0. 9.
       -2     1     3     0     0   101 -8.0732282420e+00 -2.0597577480e+01  1.1638465867e+01  2.5000000000e+01  3.3000000000e-01 0. 9.
#pdf   11  -11  1.000000e+00  1.000000e+00  5.000000e+01  1.000000e+00  1.000000e+00
</event>
<event>
     5  9999  1.000000e+00  5.000000e+01  7.764622e-03  1.436968e-01
       11    -1     0     0     0     0  0.0000000000e+00  0.0000000000e+00  2.5000000000e+01  2.5000000000e+01  0.0000000000e+00 0. 9.
      -11    -1     0     0     0     0  0.0000000000e+00  0.0000000000e+00 -2.5000000000e+01  2.5000000000e+01  0.0000000000e+00 0. 9.
       23     2     1     2     0     0  0.0000000000e+00  0.0000000000e+00  0.0000000000e+00  5.0000000000e+01  5.0000000000e+01 0. 9.
        2     1     3     0   101     0 -1.9549318812e+01  6.6516505450e+00  1.4087965752e+01  2.5000000000e+01  3.3000000000e-01 0. 9.
       -2     1     3     0     0   101  1.9549318812e+01 -6.6516505450e+00 -1.4087965752e+01  2.5000000000e+01  3.3000000000e-01 0. 9.
#pdf   11  -11  1.000000e+00  1.000000e+00  5.000000e+01  1.000000e+00  1.000000e+00
</event>
<event>
     5  9999  1.000000e+00  5.000000e+01  7.764622e-03  1.436968e-01
       11    -1     0     0     0     0  0.0000000000e+00  0.0000000000e+00  2.5000000000e+01  2.5000000000e+01  0.0000000000e+00 0. 9.
      -11    -1     0     0     0     0  0.0000000000e+00  0.0000000000e+00 -2.5000000000e+01  2.5000000000e+01  0.0000000000e+00 0. 9.
       23     2     1     2     0     0  0.0000000000e+00  0.0000000000e+00  0.0000000000e+00  5.0000000000e+01  5.0000000000e+01 0. 9.
        2     1     3     0   101     0  1.8591927601e+01  5.9177165159e+00  1.5627282531e+01  2.5000000000e+01  3.3000000000e-01 0. 9.
       -2     1     3     0     0   101 -1.8591927601e+01 -5.9177165159e+00 -1.5627282531e+01  2.5000000000e+01  3.3000000000e-01 0. 9.
#pdf   11  -11  1.000000e+00  1.000000e+00  5.000000e+01  1.000000e+00  1.000000e+00
</event>
<event>
     5  9999  1.000000e+00  5.000000e+01  7.764622e-03  1.436968e-01
       11    -1     0     0     0     0  0.0000000000e+00  0.0000000000e+00  2.5000000000e+01  2.5000000000e+01  0.0000000000e+00 0. 9.
      -11    -1     0     0     0     0  0.0000000000e+00  0.0000000000e+00 -2.5000000000e+01  2.5000000000e+01  0.0000000000e+00 0. 9.
       23     2     1     2     0     0  0.0000000000e+00  0.0000000000e+00  0.0000000000e+00  5.0000000000e+01  5.0000000000e+01 0. 9.
        2     1     3     0   101     0 -2.3241578954e+01 -5.0376310441e+00 -7.7034006254e+00  2.5000000000e+01  3.3000000000e-01 0. 9.
       -2     1     3     0     0   101  2.3241578954e+01  5.0376310441e+00  7.7034006254e+00  2.5000000000e+01  3.3000000000e-01 0. 9.
#pdf   11  -11  1.000000e+00  1.000000e+00  5.000000e+01  1.000000e+00  1.000000e+00
</event>
<event>
     5  9999  1.000000e+00  5.000000e+01  7.764622e-03  1.436968e-01
       11    -1     0     0     0     0  0.0000000000e+00  0.0000000000e+00  2.5000000000e+01  2.5000000000e+01  0.0000000000e+00 0. 9.
      -11    -1     0     0     0     0  0.0000000000e+00  0.0000000000e+00 -2.5000000000e+01  2.5000000000e+01  0.0000000000e+00 0. 9.
       23     2     1     2     0     0  0.0000000000e+00  0.0000000000e+00  0.0000000000e+00  5.0000000000e+01  5.0000000000e+01 0. 9.
        2     1     3     0   101     0 -1.4194805148e+01 -1.8407924427e+01 -9.1949401898e+00  2.5000000000e+01  3.3000000000e-01 0. 9.
       -2     1     3     0     0   101  1.4194805148e+01  1.8407924427e+01  9.1949401898e+00  2.5000000000e+01  3.3000000000e-01 0. 9.
#pdf   11  -11  1.000000e+00  1.000000e+00  5.000000e+01  1.000000e+00  1.000000e+00
</event>
<event>
     5  9999  1.000000e+00  5.000000e+01  7.764622e-03  1.436968e-01
       11    -1     0     0     0     0  0.0000000000e+00  0.0000000000e+00  2.5000000000e+01  2.5000000000e+01  0.0000000000e+00 0. 9.
      -11    -1     0     0     0     0  0.0000000000e+00  0.0000000000e+00 -2.5000000000e+01  2.5000000000e+01  0.0000000000e+00 0. 9.
       23     2     1     2     0     0  0.0000000000e+00  0.0000000000e+00  0.0000000000e+00  5.0000000000e+01  5.0000000000e+01 0. 9.
        2     1     3     0   101     0  4.3168871071e-01  1.4053831371e+01 -2.0668685702e+01  2.5000000000e+01  3.3000000000e-01 0. 9.
       -2     1     3     0     0   101 -4.3168871071e-01 -1.4053831371e+01  2.0668685702e+01  2.5000000000e+01  3.3000000000e-01 0. 9.
#pdf   11  -11  1.000000e+00  1.000000e+00  5.000000e+01  1.000000e+00  1.000000e+00
</event>
<event>
     5  9999  1.000000e+00  5.000000e+01  7.764622e-03  1.436968e-01
       11    -1     0     0     0     0  0.0000000000e+00  0.0000000000e+00  2.5000000000e+01  2.5000000000e+01  0.0000000000e+00 0. 9.
      -11    -1     0     0     0     0  0.0000000000e+00  0.0000000000e+00 -2.5000000000e+01  2.5000000000e+01  0.0000000000e+00 0. 9.
       23     2     1     2     0     0  0.0000000000e+00  0.0000000000e+00  0.0000000000e+00  5.0000000000e+01  5.0000000000e+01 0. 9.
        2     1     3     0   101     0  2.4824385703e+01  1.8787040598e+00  2.2608506153e+00  2.5000000000e+01  3.3000000000e-01 0. 9.
       -2     1     3     0     0   101 -2.4824385703e+01 -1.8787040598e+00 -2.2608506153e+00  2.5000000000e+01  3.3000000000e-01 0. 9.
#pdf   11  -11  1.000000e+00  1.000000e+00  5.000000e+01  1.000000e+00  1.000000e+00
</event>
<event>
     5  9999  1.000000e+00  5.000000e+01  7.764622e-03  1.436968e-01
       11    -1     0     0     0     0  0.0000000000e+00  0.0000000000e+00  2.5000000000e+01  2.5000000000e+01  0.0000000000e+00 0. 9.
      -11    -1     0     0     0     0  0.0000000000e+00  0.0000000000e+00 -2.5000000000e+01  2.5000000000e+01  0.0000000000e+00 0. 9.
       23     2     1     2     0     0  0.0000000000e+00  0.0000000000e+00  0.0000000000e+00  5.0000000000e+01  5.0000000000e+01 0. 9.
        2     1     3     0   101     0  8.9594173823e+00  2.1824820735e+01  8.2642083748e+00  2.5000000000e+01  3.3000000000e-01 0. 9.
       -2     1     3     0     0   101 -8.9594173823e+00 -2.1824820735e+01 -8.2642083748e+00  2.5000000000e+01  3.3000000000e-01 0. 9.
#pdf   11  -11  1.000000e+00  1.000000e+00  5.000000e+01  1.000000e+00  1.000000e+00
</event>
<event>
     5  9999  1.000000e+00  5.000000e+01  7.764622e-03  1.436968e-01
       11    -1     0     0     0     0  0.0000000000e+00  0.0000000000e+00  2.5000000000e+01  2.5000000000e+01  0.0000000000e+00 0. 9.
      -11    -1     0     0     0     0  0.0000000000e+00  0.0000000000e+00 -2.5000000000e+01  2.5000000000e+01  0.0000000000e+00 0. 9.
       23     2     1     2     0     0  0.0000000000e+00  0.0000000000e+00  0.0000000000e+00  5.0000000000e+01  5.0000000000e+01 0. 9.
        2     1     3     0   101     0 -1.8866004120e+01 -1.1394800308e+01  1.1795063141e+01  2.5000000000e+01  3.3000000000e-01 0. 9.
       -2     1     3     0     0   101  1.8866004120e+01  1.1394800308e+01 -1.1795063141e+01  2.5000000000e+01  3.3000000000e-01 0. 9.
#pdf   11  -11  1.000000e+00  1.000000e+00  5.000000e+01  1.000000e+00  1.000000e+00
</event>
<event>
     5  9999  1.000000e+00  5.000000e+01  7.764622e-03  1.436968e-01
       11    -1     0     0     0     0  0.0000000000e+00  0.0000000000e+00  2.5000000000e+01  2.5000000000e+01  0.0000000000e+00 0. 9.
      -11    -1     0     0     0     0  0.0000000000e+00  0.0000000000e+00 -2.5000000000e+01  2.5000000000e+01  0.0000000000e+00 0. 9.
       23     2     1     2     0     0  0.0000000000e+00  0.0000000000e+00  0.0000000000e+00  5.0000000000e+01  5.0000000000e+01 0. 9.
        2     1     3     0   101     0 -1.1816911761e+01 -1.7261842414e+01 -1.3685046324e+01  2.5000000000e+01  3.3000000000e-01 0. 9.
       -2     1     3     0     0   101  1.1816911761e+01  1.7261842414e+01  1.3685046324e+01  2.5000000000e+01  3.3000000000e-01 0. 9.
#pdf   11  -11  1.000000e+00  1.000000e+00  5.000000e+01  1.000000e+00  1.000000e+00
</event>
<event>
     5  9999  1.000000e+00  5.000000e+01  7.764622e-03  1.436968e-01
       11    -1     0     0     0     0  0.0000000000e+00  0.0000000000e+00  2.5000000000e+01  2.5000000000e+01  0.0000000000e+00 0. 9.
      -11    -1     0     0     0     0  0.0000000000e+00  0.0000000000e+00 -2.5000000000e+01  2.5000000000e+01  0.0000000000e+00 0. 9.
       23     2     1     2     0     0  0.0000000000e+00  0.0000000000e+00  0.0000000000e+00  5.0000000000e+01  5.0000000000e+01 0. 9.
        2     1     3     0   101     0  8.1712813430e+00  2.0078271060e+01 -1.2449268751e+01  2.5000000000e+01  3.3000000000e-01 0. 9.
       -2     1     3     0     0   101 -8.1712813430e+00 -2.0078271060e+01  1.2449268751e+01  2.5000000000e+01  3.3000000000e-01 0. 9.
#pdf   11  -11  1.000000e+00  1.000000e+00  5.000000e+01  1.000000e+00  1.000000e+00
</event>
<event>
     5  9999  1.000000e+00  5.000000e+01  7.764622e-03  1.436968e-01
       11    -1     0     0     0     0  0.0000000000e+00  0.0000000000e+00  2.5000000000e+01  2.5000000000e+01  0.0000000000e+00 0. 9.
      -11    -1     0     0     0     0  0.0000000000e+00  0.0000000000e+00 -2.5000000000e+01  2.5000000000e+01  0.0000000000e+00 0. 9.
       23     2     1     2     0     0  0.0000000000e+00  0.0000000000e+00  0.0000000000e+00  5.0000000000e+01  5.0000000000e+01 0. 9.
        2     1     3     0   101     0  3.2085503951e+00  9.6581699903e+00 -2.2832346721e+01  2.5000000000e+01  3.3000000000e-01 0. 9.
       -2     1     3     0     0   101 -3.2085503951e+00 -9.6581699903e+00  2.2832346721e+01  2.5000000000e+01  3.3000000000e-01 0. 9.
#pdf   11  -11  1.000000e+00  1.000000e+00  5.000000e+01  1.000000e+00  1.000000e+00
</event>
<event>
     5  9999  1.000000e+00  5.000000e+01  7.764622e-03  1.436968e-01
       11    -1     0     0     0     0  0.0000000000e+00  0.0000000000e+00  2.5000000000e+01  2.5000000000e+01  0.0000000000e+00 0. 9.
      -11    -1     0     0     0     0  0.0000000000e+00  0.0000000000e+00 -2.5000000000e+01  2.5000000000e+01  0.0000000000e+00 0. 9.
       23     2     1     2     0     0  0.0000000000e+00  0.0000000000e+00  0.0000000000e+00  5.0000000000e+01  5.0000000000e+01 0. 9.
        2     1     3     0   101     0  2.4392086945e+01 -5.3416948616e+00  1.1762187089e+00  2.5000000000e+01  3.3000000000e-01 0. 9.
       -2     1     3     0     0   101 -2.4392086945e+01  5.3416948616e+00 -1.1762187089e+00  2.5000000000e+01  3.3000000000e-01 0. 9.
#pdf   11  -11  1.000000e+00  1.000000e+00  5.000000e+01  1.000000e+00  1.000000e+00
</event>
<event>
     5  9999  1.000000e+00  5.000000e+01  7.764622e-03  1.436968e-01
       11    -1     0     0     0     0  0.0000000000e+00  0.0000000000e+00  2.5000000000e+01  2.5000000000e+01  0.0000000000e+00 0. 9.
      -11    -1     0     0     0     0  0.0000000000e+00  0.0000000000e+00 -2.5000000000e+01  2.5000000000e+01  0.0000000000e+00 0. 9.
       23     2     1     2     0     0  0.0000000000e+00  0.0000000000e+00  0.0000000000e+00  5.0000000000e+01  5.0000000000e+01 0. 9.
        2     1     3     0   101     0  1.5761963865e+00  7.8588957584e+00 -2.3677931971e+01  2.5000000000e+01  3.3000000000e-01 0. 9.
       -2     1     3     0     0   101 -1.5761963865e+00 -7.8588957584e+00  2.3677931971e+01  2.5000000000e+01  3.3000000000e-01 0. 9.
#pdf   11  -11  1.000000e+00  1.000000e+00  5.000000e+01  1.000000e+00  1.000000e+00
</event>
<event>
     5  9999  1.000000e+00  5.000000e+01  7.764622e-03  1.436968e-01
       11    -1     0     0     0     0  0.0000000000e+00  0.0000000000e+00  2.5000000000e+01  2.5000000000e+01  0.0000000000e+00 0. 9.
      -11    -1     0     0     0     0  0.0000000000e+00  0.0000000000e+00 -2.5000000000e+01  2.5000000000e+01  0.0000000000e+00 0. 9.
       23     2     1     2     0     0  0.0000000000e+00  0.0000000000e+00  0.0000000000e+00  5.0000000000e+01  5.0000000000e+01 0. 9.
        2     1     3     0   101     0 -1.5541465433e+01 -1.2665943468e+01  1.4930767840e+01  2.5000000000e+01  3.3000000000e-01 0. 9.
       -2     1     3     0     0   101  1.5541465433e+01  1.2665943468e+01 -1.4930767840e+01  2.5000000000e+01  3.3000000000e-01 0. 9.
#pdf   11  -11  1.000000e+00  1.000000e+00  5.000000e+01  1.000000e+00  1.000000e+00
</event>
<event>
     5  9999  1.000000e+00  5.000000e+01  7.764622e-03  1.436968e-01
       11    -1     0     0     0     0  0.0000000000e+00  0.0000000000e+00  2.5000000000e+01  2.5000000000e+01  0.0000000000e+00 0. 9.
      -11    -1     0     0     0     0  0.0000000000e+00  0.0000000000e+00 -2.5000000000e+01  2.5000000000e+01  0.0000000000e+00 0. 9.
       23     2     1     2     0     0  0.0000000000e+00  0.0000000000e+00  0.0000000000e+00  5.0000000000e+01  5.0000000000e+01 0. 9.
        2     1     3     0   101     0  1.1112198053e+01 -2.1515812126e+01 -6.2032235970e+00  2.5000000000e+01  3.3000000000e-01 0. 9.
       -2     1     3     0     0   101 -1.1112198053e+01  2.1515812126e+01  6.2032235970e+00  2.5000000000e+01  3.3000000000e-01 0. 9.
#pdf   11  -11  1.000000e+00  1.000000e+00  5.000000e+01  1.000000e+00  1.000000e+00
</event>
<event>
     5  9999  1.000000e+00  5.000000e+01  7.764622e-03  1.436968e-01
       11    -1     0     0     0     0  0.0000000000e+00  0.0000000000e+00  2.5000000000e+01  2.5000000000e+01  0.0000000000e+00 0. 9.
      -11    -1     0     0     0     0  0.0000000000e+00  0.0000000000e+00 -2.5000000000e+01  2.5000000000e+01  0.0000000000e+00 0. 9.
       23     2     1     2     0     0  0.0000000000e+00  0.0000000000e+00  0.0000000000e+00  5.0000000000e+01  5.0000000000e+01 0. 9.
        2     1     3     0   101     0  1.0429250598e+01  2.1055902883e+01  8.5305794492e+00  2.5000000000e+01  3.3000000000e-01 0. 9.
       -2     1     3     0     0   101 -1.0429250598e+01 -2.1055902883e+01 -8.5305794492e+00  2.5000000000e+01  3.3000000000e-01 0. 9.
#pdf   11  -11  1.000000e+00  1.000000e+00  5.000000e+01  1.000000e+00  1.000000e+00
</event>
<event>
     5  9999  1.000000e+00  5.000000e+01  7.764622e-03  1.436968e-01
       11    -1     0     0     0     0  0.0000000000e+00  0.0000000000e+00  2.5000000000e+01  2.5000000000e+01  0.0000000000e+00 0. 9.
      -11    -1     0     0     0     0  0.0000000000e+00  0.0000000000e+00 -2.5000000000e+01  2.5000000000e+01  0.0000000000e+00 0. 9.
       23     2     1     2     0     0  0.0000000000e+00  0.0000000000e+00  0.0000000000e+00  5.0000000000e+01  5.0000000000e+01 0. 9.
        2     1     3     0   101     0 -2.3133223657e+01  3.3726579947e+00 -8.8526968363e+00  2.5000000000e+01  3.3000000000e-01 0. 9.
       -2     1     3     0     0   101  2.3133223657e+01 -3.3726579947e+00  8.8526968363e+00  2.5000000000e+01  3.3000000000e-01 0. 9.
#pdf   11  -11  1.000000e+00  1.000000e+00  5.000000e+01  1.000000e+00  1.000000e+00
</event>
<event>
     5  9999  1.000000e+00  5.000000e+01  7.764622e-03  1.436968e-01
       11    -1     0     0     0     0  0.0000000000e+00  0.0000000000e+00  2.5000000000e+01  2.5000000000e+01  0.0000000000e+00 0. 9.
      -11    -1     0     0     0     0  0.0000000000e+00  0.0000000000e+00 -2.5000000000e+01  2.5000000000e+01  0.0000000000e+00 0. 9.
       23     2     1     2     0     0  0.0000000000e+00  0.0000000000e+00  0.0000000000e+00  5.0000000000e+01  5.0000000000e+01 0. 9.
        2     1     3     0   101     0 -1.8136850283e+00  2.4295450929e+01 -5.5975629320e+00  2.5000000000e+01  3.3000000000e-01 0. 9.
       -2     1     3     0     0   101  1.8136850283e+00 -2.4295450929e+01  5.5975629320e+00  2.5000000000e+01  3.3000000000e-01 0. 9.
#pdf   11  -11  1.000000e+00  1.000000e+00  5.000000e+01  1.000000e+00  1.000000e+00
</event>
<event>
     5  9999  1.000000e+00  5.000000e+01  7.764622e-03  1.436968e-01
       11    -1     0     0     0     0  0.0000000000e+00  0.0000000000e+00  2.5000000000e+01  2.5000000000e+01  0.0000000000e+00 0. 9.
      -11    -1     0     0     0     0  0.0000000000e+00  0.0000000000e+00 -2.5000000000e+01  2.5000000000e+01  0.0000000000e+00 0. 9.
       23     2     1     2     0     0  0.0000000000e+00  0.0000000000e+00  0.0000000000e+00  5.0000000000e+01  5.0000000000e+01 0. 9.
        2     1     3     0   101     0 -1.7351714964e+01  7.1865098527e+00 -1.6497368395e+01  2.5000000000e+01  3.3000000000e-01 0. 9.
       -2     1     3     0     0   101  1.7351714964e+01 -7.1865098527e+00  1.6497368395e+01  2.5000000000e+01  3.3000000000e-01 0. 9.
#pdf   11  -11  1.000000e+00  1.000000e+00  5.000000e+01  1.000000e+00  1.000000e+00
</event>
<event>
     5  9999  1.000000e+00  5.000000e+01  7.764622e-03  1.436968e-01
       11    -1     0     0     0     0  0.0000000000e+00  0.0000000000e+00  2.5000000000e+01  2.5000000000e+01  0.0000000000e+00 0. 9.
      -11    -1     0     0     0     0  0.0000000000e+00  0.0000000000e+00 -2.5000000000e+01  2.5000000000e+01  0.0000000000e+00 0. 9.
       23     2     1     2     0     0  0.0000000000e+00  0.0000000000e+00  0.0000000000e+00  5.0000000000e+01  5.0000000000e+01 0. 9.
        2     1     3     0   101     0  4.9790050502e+00  1.6341841737e+01 -1.8249515538e+01  2.5000000000e+01  3.3000000000e-01 0. 9.
       -2     1     3     0     0   101 -4.9790050502e+00 -1.6341841737e+01  1.8249515538e+01  2.5000000000e+01  3.3000000000e-01 0. 9.
#pdf   11  -11  1.000000e+00  1.000000e+00  5.000000e+01  1.000000e+00  1.000000e+00
</event>
<event>
     5  9999  1.000000e+00  5.000000e+01  7.764622e-03  1.436968e-01
       11    -1     0     0     0     0  0.0000000000e+00  0.0000000000e+00  2.5000000000e+01  2.5000000000e+01  0.0000000000e+00 0. 9.
      -11    -1     0     0     0     0  0.0000000000e+00  0.0000000000e+00 -2.5000000000e+01  2.5000000000e+01  0.0000000000e+00 0. 9.
       23     2     1     2     0     0  0.0000000000e+00  0.0000000000e+00  0.0000000000e+00  5.0000000000e+01  5.0000000000e+01 0. 9.
        2     1     3     0   101     0  1.9990166490e+01 -3.6978391607e+00 -1.4546832275e+01  2.5000000000e+01  3.3000000000e-01 0. 9.
       -2     1     3     0     0   101 -1.9990166490e+01  3.6978391607e+00  1.4546832275e+01  2.5000000000e+01  3.3000000000e-01 0. 9.
#pdf   11  -11  1.000000e+00  1.000000e+00  5.000000e+01  1.000000e+00  1.000000e+00
</event>
<event>
     5  9999  1.000000e+00  5.000000e+01  7.764622e-03  1.436968e-01
       11    -1     0     0     0     0  0.0000000000e+00  0.0000000000e+00  2.5000000000e+01  2.5000000000e+01  0.0000000000e+00 0. 9.
      -11    -1     0     0     0     0  0.0000000000e+00  0.0000000000e+00 -2.5000000000e+01  2.5000000000e+01  0.0000000000e+00 0. 9.
       23     2     1     2     0     0  0.0000000000e+00  0.0000000000e+00  0.0000000000e+00  5.0000000000e+01  5.0000000000e+01 0. 9.
        2     1     3     0   101     0  6.8959582694e-01 -6.8103736962e+00 -2.4042345304e+01  2.5000000000e+01  3.3000000000e-01 0. 9.
       -2     1     3     0     0   101 -6.8959582694e-01  6.8103736962e+00  2.4042345304e+01  2.5000000000e+01  3.3000000000e-01 0. 9.
#pdf   11  -11  1.000000e+00  1.000000e+00  5.000000e+01  1.000000e+00  1.000000e+00
</event>
<event>
     5  9999  1.000000e+00  5.000000e+01  7.764622e-03  1.436968e-01
       11    -1     0     0     0     0  0.0000000000e+00  0.0000000000e+00  2.5000000000e+01  2.5000000000e+01  0.0000000000e+00 0. 9.
      -11    -1     0     0     0     0  0.0000000000e+00  0.0000000000e+00 -2.5000000000e+01  2.5000000000e+01  0.0000000000e+00 0. 9.
       23     2     1     2     0     0  0.0000000000e+00  0.0000000000e+00  0.0000000000e+00  5.0000000000e+01  5.0000000000e+01 0. 9.
        2     1     3     0   101     0 -2.5553952436e+00  4.0340534825e+00  2.4537470686e+01  2.5000000000e+01  3.3000000000e-01 0. 9.
       -2     1     3     0     0   101  2.5553952436e+00 -4.0340534825e+00 -2.4537470686e+01  2.5000000000e+01  3.3000000000e-01 0. 9.
#pdf   11  -11  1.000000e+00  1.000000e+00  5.000000e+01  1.000000e+00  1.000000e+00
</event>
<event>
     5  9999  1.000000e+00  5.000000e+01  7.764622e-03  1.436968e-01
       11    -1     0     0     0     0  0.0000000000e+00  0.0000000000e+00  2.5000000000e+01  2.5000000000e+01  0.0000000000e+00 0. 9.
      -11    -1     0     0     0     0  0.0000000000e+00  0.0000000000e+00 -2.5000000000e+01  2.5000000000e+01  0.0000000000e+00 0. 9.
       23     2     1     2     0     0  0.0000000000e+00  0.0000000000e+00  0.0000000000e+00  5.0000000000e+01  5.0000000000e+01 0. 9.
        2     1     3     0   101     0 -1.6631925604e+01 -1.5518075629e+01  1.0366266420e+01  2.5000000000e+01  3.3000000000e-01 0. 9.
       -2     1     3     0     0   101  1.6631925604e+01  1.5518075629e+01 -1.0366266420e+01  2.5000000000e+01  3.3000000000e-01 0. 9.
#pdf   11  -11  1.000000e+00  1.000000e+00  5.000000e+01  1.000000e+00  1.000000e+00
</event>
<event>
     5  9999  1.000000e+00  5.000000e+01  7.764622e-03  1.436968e-01
       11    -1     0     0     0     0  0.0000000000e+00  0.0000000000e+00  2.5000000000e+01  2.5000000000e+01  0.0000000000e+00 0. 9.
      -11    -1     0     0     0     0  0.0000000000e+00  0.0000000000e+00 -2.5000000000e+01  2.5000000000e+01  0.0000000000e+00 0. 9.
       23     2     1     2     0     0  0.0000000000e+00  0.0000000000e+00  0.0000000000e+00  5.0000000000e+01  5.0000000000e+01 0. 9.
        2     1     3     0   101     0 -1.0125575299e+01  1.9457521123e+01 -1.1990358486e+01  2.5000000000e+01  3.3000000000e-01 0. 9.
       -2     1     3     0     0   101  1.0125575299e+01 -1.9457521123e+01  1.1990358486e+01  2.5000000000e+01  3.3000000000e-01 0. 9.
#pdf   11  -11  1.000000e+00  1.000000e+00  5.000000e+01  1.000000e+00  1.000000e+00
</event>
<event>
     5  9999  1.000000e+00  5.000000e+01  7.764622e-03  1.436968e-01
       11    -1     0     0     0     0  0.0000000000e+00  0.0000000000e+00  2.5000000000e+01  2.5000000000e+01  0.0000000000e+00 0. 9.
      -11    -1     0     0     0     0  0.0000000000e+00  0.0000000000e+00 -2.5000000000e+01  2.5000000000e+01  0.0000000000e+00 0. 9.
       23     2     1     2     0     0  0.0000000000e+00  0.0000000000e+00  0.0000000000e+00  5.0000000000e+01  5.0000000000e+01 0. 9.
        2     1     3     0   101     0 -2.1608661096e+01  6.0906582101e+00 -1.0993668550e+01  2.5000000000e+01  3.3000000000e-01 0. 9.
       -2     1     3     0     0   101  2.1608661096e+01 -6.0906582101e+00  1.0993668550e+01  2.5000000000e+01  3.3000000000e-01 0. 9.
#pdf   11  -11  1.000000e+00  1.000000e+00  5.000000e+01  1.000000e+00  1.000000e+00
</event>
<event>
     5  9999  1.000000e+00  5.000000e+01  7.764622e-03  1.436968e-01
       11    -1     0     0     0     0  0.0000000000e+00  0.0000000000e+00  2.5000000000e+01  2.5000000000e+01  0.0000000000e+00 0. 9.
      -11    -1     0     0     0     0  0.0000000000e+00  0.0000000000e+00 -2.5000000000e+01  2.5000000000e+01  0.0000000000e+00 0. 9.
       23     2     1     2     0     0  0.0000000000e+00  0.0000000000e+00  0.0000000000e+00  5.0000000000e+01  5.0000000000e+01 0. 9.
        2     1     3     0   101     0  5.1035121039e+00 -5.4710243372e+00 -2.3851900488e+01  2.5000000000e+01  3.3000000000e-01 0. 9.
       -2     1     3     0     0   101 -5.1035121039e+00  5.4710243372e+00  2.3851900488e+01  2.5000000000e+01  3.3000000000e-01 0. 9.
#pdf   11  -11  1.000000e+00  1.000000e+00  5.000000e+01  1.000000e+00  1.000000e+00
</event>
</LesHouchesEvents>
