<LesHouchesEvents version="1.0">
<!--
  File written by Pythia8::LHAup on 07 Jun 2015 at 18:23:36
-->
<init>
  11  -11  4.000000e+02  4.000000e+02  0  0  0  0  3  1
  3.059499e-01  0.000000e+00  1.000000e+00   9999
</init>
<event>
     5  9999  1.000000e+00  8.000000e+02  8.014810e-03  9.824665e-02
       11    -1     0     0     0     0  0.0000000000e+00  0.0000000000e+00  4.0000000000e+02  4.0000000000e+02  0.0000000000e+00 0. 9.
      -11    -1     0     0     0     0  0.0000000000e+00  0.0000000000e+00 -4.0000000000e+02  4.0000000000e+02  0.0000000000e+00 0. 9.
       23     2     1     2     0     0  0.0000000000e+00  0.0000000000e+00  0.0000000000e+00  8.0000000000e+02  8.0000000000e+02 0. 9.
        2     1     3     0   101     0 -6.3810978091e+01 -3.3547142744e+02  2.0829539492e+02  4.0000000000e+02  3.3000000000e-01 0. 9.
       -2     1     3     0     0   101  6.3810978091e+01  3.3547142744e+02 -2.0829539492e+02  4.0000000000e+02  3.3000000000e-01 0. 9.
#pdf   11  -11  1.000000e+00  1.000000e+00  8.000000e+02  1.000000e+00  1.000000e+00
</event>
<event>
     5  9999  1.000000e+00  8.000000e+02  8.014810e-03  9.824665e-02
       11    -1     0     0     0     0  0.0000000000e+00  0.0000000000e+00  4.0000000000e+02  4.0000000000e+02  0.0000000000e+00 0. 9.
      -11    -1     0     0     0     0  0.0000000000e+00  0.0000000000e+00 -4.0000000000e+02  4.0000000000e+02  0.0000000000e+00 0. 9.
       23     2     1     2     0     0  0.0000000000e+00  0.0000000000e+00  0.0000000000e+00  8.0000000000e+02  8.0000000000e+02 0. 9.
        2     1     3     0   101     0  1.8263708771e+02  2.7924378855e+01  3.5477290534e+02  4.0000000000e+02  3.3000000000e-01 0. 9.
       -2     1     3     0     0   101 -1.8263708771e+02 -2.7924378855e+01 -3.5477290534e+02  4.0000000000e+02  3.3000000000e-01 0. 9.
#pdf   11  -11  1.000000e+00  1.000000e+00  8.000000e+02  1.000000e+00  1.000000e+00
</event>
<event>
     5  9999  1.000000e+00  8.000000e+02  8.014810e-03  9.824665e-02
       11    -1     0     0     0     0  0.0000000000e+00  0.0000000000e+00  4.0000000000e+02  4.0000000000e+02  0.0000000000e+00 0. 9.
      -11    -1     0     0     0     0  0.0000000000e+00  0.0000000000e+00 -4.0000000000e+02  4.0000000000e+02  0.0000000000e+00 0. 9.
       23     2     1     2     0     0  0.0000000000e+00  0.0000000000e+00  0.0000000000e+00  8.0000000000e+02  8.0000000000e+02 0. 9.
        2     1     3     0   101     0 -3.7120645711e+02  1.3078772428e+02  7.1415883919e+01  4.0000000000e+02  3.3000000000e-01 0. 9.
       -2     1     3     0     0   101  3.7120645711e+02 -1.3078772428e+02 -7.1415883919e+01  4.0000000000e+02  3.3000000000e-01 0. 9.
#pdf   11  -11  1.000000e+00  1.000000e+00  8.000000e+02  1.000000e+00  1.000000e+00
</event>
<event>
     5  9999  1.000000e+00  8.000000e+02  8.014810e-03  9.824665e-02
       11    -1     0     0     0     0  0.0000000000e+00  0.0000000000e+00  4.0000000000e+02  4.0000000000e+02  0.0000000000e+00 0. 9.
      -11    -1     0     0     0     0  0.0000000000e+00  0.0000000000e+00 -4.0000000000e+02  4.0000000000e+02  0.0000000000e+00 0. 9.
       23     2     1     2     0     0  0.0000000000e+00  0.0000000000e+00  0.0000000000e+00  8.0000000000e+02  8.0000000000e+02 0. 9.
        2     1     3     0   101     0  1.7235534437e+02  2.8934215479e+02  2.1581159336e+02  4.0000000000e+02  3.3000000000e-01 0. 9.
       -2     1     3     0     0   101 -1.7235534437e+02 -2.8934215479e+02 -2.1581159336e+02  4.0000000000e+02  3.3000000000e-01 0. 9.
#pdf   11  -11  1.000000e+00  1.000000e+00  8.000000e+02  1.000000e+00  1.000000e+00
</event>
<event>
     5  9999  1.000000e+00  8.000000e+02  8.014810e-03  9.824665e-02
       11    -1     0     0     0     0  0.0000000000e+00  0.0000000000e+00  4.0000000000e+02  4.0000000000e+02  0.0000000000e+00 0. 9.
      -11    -1     0     0     0     0  0.0000000000e+00  0.0000000000e+00 -4.0000000000e+02  4.0000000000e+02  0.0000000000e+00 0. 9.
       23     2     1     2     0     0  0.0000000000e+00  0.0000000000e+00  0.0000000000e+00  8.0000000000e+02  8.0000000000e+02 0. 9.
        2     1     3     0   101     0 -1.9878808123e+01  1.9030421569e+01  3.9905208575e+02  4.0000000000e+02  3.3000000000e-01 0. 9.
       -2     1     3     0     0   101  1.9878808123e+01 -1.9030421569e+01 -3.9905208575e+02  4.0000000000e+02  3.3000000000e-01 0. 9.
#pdf   11  -11  1.000000e+00  1.000000e+00  8.000000e+02  1.000000e+00  1.000000e+00
</event>
<event>
     5  9999  1.000000e+00  8.000000e+02  8.014810e-03  9.824665e-02
       11    -1     0     0     0     0  0.0000000000e+00  0.0000000000e+00  4.0000000000e+02  4.0000000000e+02  0.0000000000e+00 0. 9.
      -11    -1     0     0     0     0  0.0000000000e+00  0.0000000000e+00 -4.0000000000e+02  4.0000000000e+02  0.0000000000e+00 0. 9.
       23     2     1     2     0     0  0.0000000000e+00  0.0000000000e+00  0.0000000000e+00  8.0000000000e+02  8.0000000000e+02 0. 9.
        2     1     3     0   101     0  3.7960450086e+02  9.2917151905e+01 -8.5245040383e+01  4.0000000000e+02  3.3000000000e-01 0. 9.
       -2     1     3     0     0   101 -3.7960450086e+02 -9.2917151905e+01  8.5245040383e+01  4.0000000000e+02  3.3000000000e-01 0. 9.
#pdf   11  -11  1.000000e+00  1.000000e+00  8.000000e+02  1.000000e+00  1.000000e+00
</event>
<event>
     5  9999  1.000000e+00  8.000000e+02  8.014810e-03  9.824665e-02
       11    -1     0     0     0     0  0.0000000000e+00  0.0000000000e+00  4.0000000000e+02  4.0000000000e+02  0.0000000000e+00 0. 9.
      -11    -1     0     0     0     0  0.0000000000e+00  0.0000000000e+00 -4.0000000000e+02  4.0000000000e+02  0.0000000000e+00 0. 9.
       23     2     1     2     0     0  0.0000000000e+00  0.0000000000e+00  0.0000000000e+00  8.0000000000e+02  8.0000000000e+02 0. 9.
        2     1     3     0   101     0  1.5633505709e+02  2.9874448436e+02 -2.1519984686e+02  4.0000000000e+02  3.3000000000e-01 0. 9.
       -2     1     3     0     0   101 -1.5633505709e+02 -2.9874448436e+02  2.1519984686e+02  4.0000000000e+02  3.3000000000e-01 0. 9.
#pdf   11  -11  1.000000e+00  1.000000e+00  8.000000e+02  1.000000e+00  1.000000e+00
</event>
<event>
     5  9999  1.000000e+00  8.000000e+02  8.014810e-03  9.824665e-02
       11    -1     0     0     0     0  0.0000000000e+00  0.0000000000e+00  4.0000000000e+02  4.0000000000e+02  0.0000000000e+00 0. 9.
      -11    -1     0     0     0     0  0.0000000000e+00  0.0000000000e+00 -4.0000000000e+02  4.0000000000e+02  0.0000000000e+00 0. 9.
       23     2     1     2     0     0  0.0000000000e+00  0.0000000000e+00  0.0000000000e+00  8.0000000000e+02  8.0000000000e+02 0. 9.
        2     1     3     0   101     0 -4.2719204642e+01 -3.0385274621e+02  2.5660956583e+02  4.0000000000e+02  3.3000000000e-01 0. 9.
       -2     1     3     0     0   101  4.2719204642e+01  3.0385274621e+02 -2.5660956583e+02  4.0000000000e+02  3.3000000000e-01 0. 9.
#pdf   11  -11  1.000000e+00  1.000000e+00  8.000000e+02  1.000000e+00  1.000000e+00
</event>
<event>
     5  9999  1.000000e+00  8.000000e+02  8.014810e-03  9.824665e-02
       11    -1     0     0     0     0  0.0000000000e+00  0.0000000000e+00  4.0000000000e+02  4.0000000000e+02  0.0000000000e+00 0. 9.
      -11    -1     0     0     0     0  0.0000000000e+00  0.0000000000e+00 -4.0000000000e+02  4.0000000000e+02  0.0000000000e+00 0. 9.
       23     2     1     2     0     0  0.0000000000e+00  0.0000000000e+00  0.0000000000e+00  8.0000000000e+02  8.0000000000e+02 0. 9.
        2     1     3     0   101     0 -3.1898948395e+02  2.2336974274e+02  9.1386860420e+01  4.0000000000e+02  3.3000000000e-01 0. 9.
       -2     1     3     0     0   101  3.1898948395e+02 -2.2336974274e+02 -9.1386860420e+01  4.0000000000e+02  3.3000000000e-01 0. 9.
#pdf   11  -11  1.000000e+00  1.000000e+00  8.000000e+02  1.000000e+00  1.000000e+00
</event>
<event>
     5  9999  1.000000e+00  8.000000e+02  8.014810e-03  9.824665e-02
       11    -1     0     0     0     0  0.0000000000e+00  0.0000000000e+00  4.0000000000e+02  4.0000000000e+02  0.0000000000e+00 0. 9.
      -11    -1     0     0     0     0  0.0000000000e+00  0.0000000000e+00 -4.0000000000e+02  4.0000000000e+02  0.0000000000e+00 0. 9.
       23     2     1     2     0     0  0.0000000000e+00  0.0000000000e+00  0.0000000000e+00  8.0000000000e+02  8.0000000000e+02 0. 9.
        2     1     3     0   101     0  1.0396323112e+02 -1.9337097108e+02  3.3436388145e+02  4.0000000000e+02  3.3000000000e-01 0. 9.
       -2     1     3     0     0   101 -1.0396323112e+02  1.9337097108e+02 -3.3436388145e+02  4.0000000000e+02  3.3000000000e-01 0. 9.
#pdf   11  -11  1.000000e+00  1.000000e+00  8.000000e+02  1.000000e+00  1.000000e+00
</event>
<event>
     5  9999  1.000000e+00  8.000000e+02  8.014810e-03  9.824665e-02
       11    -1     0     0     0     0  0.0000000000e+00  0.0000000000e+00  4.0000000000e+02  4.0000000000e+02  0.0000000000e+00 0. 9.
      -11    -1     0     0     0     0  0.0000000000e+00  0.0000000000e+00 -4.0000000000e+02  4.0000000000e+02  0.0000000000e+00 0. 9.
       23     2     1     2     0     0  0.0000000000e+00  0.0000000000e+00  0.0000000000e+00  8.0000000000e+02  8.0000000000e+02 0. 9.
        2     1     3     0   101     0  1.5282257622e+02  1.7093275505e+02  3.2776080386e+02  4.0000000000e+02  3.3000000000e-01 0. 9.
       -2     1     3     0     0   101 -1.5282257622e+02 -1.7093275505e+02 -3.2776080386e+02  4.0000000000e+02  3.3000000000e-01 0. 9.
#pdf   11  -11  1.000000e+00  1.000000e+00  8.000000e+02  1.000000e+00  1.000000e+00
</event>
<event>
     5  9999  1.000000e+00  8.000000e+02  8.014810e-03  9.824665e-02
       11    -1     0     0     0     0  0.0000000000e+00  0.0000000000e+00  4.0000000000e+02  4.0000000000e+02  0.0000000000e+00 0. 9.
      -11    -1     0     0     0     0  0.0000000000e+00  0.0000000000e+00 -4.0000000000e+02  4.0000000000e+02  0.0000000000e+00 0. 9.
       23     2     1     2     0     0  0.0000000000e+00  0.0000000000e+00  0.0000000000e+00  8.0000000000e+02  8.0000000000e+02 0. 9.
        2     1     3     0   101     0 -1.6717417440e+02  7.8880166465e+01  3.5472609976e+02  4.0000000000e+02  3.3000000000e-01 0. 9.
       -2     1     3     0     0   101  1.6717417440e+02 -7.8880166465e+01 -3.5472609976e+02  4.0000000000e+02  3.3000000000e-01 0. 9.
#pdf   11  -11  1.000000e+00  1.000000e+00  8.000000e+02  1.000000e+00  1.000000e+00
</event>
<event>
     5  9999  1.000000e+00  8.000000e+02  8.014810e-03  9.824665e-02
       11    -1     0     0     0     0  0.0000000000e+00  0.0000000000e+00  4.0000000000e+02  4.0000000000e+02  0.0000000000e+00 0. 9.
      -11    -1     0     0     0     0  0.0000000000e+00  0.0000000000e+00 -4.0000000000e+02  4.0000000000e+02  0.0000000000e+00 0. 9.
       23     2     1     2     0     0  0.0000000000e+00  0.0000000000e+00  0.0000000000e+00  8.0000000000e+02  8.0000000000e+02 0. 9.
        2     1     3     0   101     0 -3.6514015230e+02  3.4051831321e+01  1.5972799712e+02  4.0000000000e+02  3.3000000000e-01 0. 9.
       -2     1     3     0     0   101  3.6514015230e+02 -3.4051831321e+01 -1.5972799712e+02  4.0000000000e+02  3.3000000000e-01 0. 9.
#pdf   11  -11  1.000000e+00  1.000000e+00  8.000000e+02  1.000000e+00  1.000000e+00
</event>
<event>
     5  9999  1.000000e+00  8.000000e+02  8.014810e-03  9.824665e-02
       11    -1     0     0     0     0  0.0000000000e+00  0.0000000000e+00  4.0000000000e+02  4.0000000000e+02  0.0000000000e+00 0. 9.
      -11    -1     0     0     0     0  0.0000000000e+00  0.0000000000e+00 -4.0000000000e+02  4.0000000000e+02  0.0000000000e+00 0. 9.
       23     2     1     2     0     0  0.0000000000e+00  0.0000000000e+00  0.0000000000e+00  8.0000000000e+02  8.0000000000e+02 0. 9.
        2     1     3     0   101     0 -2.1811599564e+02 -1.7759997346e+02  2.8440033926e+02  4.0000000000e+02  3.3000000000e-01 0. 9.
       -2     1     3     0     0   101  2.1811599564e+02  1.7759997346e+02 -2.8440033926e+02  4.0000000000e+02  3.3000000000e-01 0. 9.
#pdf   11  -11  1.000000e+00  1.000000e+00  8.000000e+02  1.000000e+00  1.000000e+00
</event>
<event>
     5  9999  1.000000e+00  8.000000e+02  8.014810e-03  9.824665e-02
       11    -1     0     0     0     0  0.0000000000e+00  0.0000000000e+00  4.0000000000e+02  4.0000000000e+02  0.0000000000e+00 0. 9.
      -11    -1     0     0     0     0  0.0000000000e+00  0.0000000000e+00 -4.0000000000e+02  4.0000000000e+02  0.0000000000e+00 0. 9.
       23     2     1     2     0     0  0.0000000000e+00  0.0000000000e+00  0.0000000000e+00  8.0000000000e+02  8.0000000000e+02 0. 9.
        2     1     3     0   101     0  3.1879356715e+02  9.4310732650e+01  2.2243209830e+02  4.0000000000e+02  3.3000000000e-01 0. 9.
       -2     1     3     0     0   101 -3.1879356715e+02 -9.4310732650e+01 -2.2243209830e+02  4.0000000000e+02  3.3000000000e-01 0. 9.
#pdf   11  -11  1.000000e+00  1.000000e+00  8.000000e+02  1.000000e+00  1.000000e+00
</event>
<event>
     5  9999  1.000000e+00  8.000000e+02  8.014810e-03  9.824665e-02
       11    -1     0     0     0     0  0.0000000000e+00  0.0000000000e+00  4.0000000000e+02  4.0000000000e+02  0.0000000000e+00 0. 9.
      -11    -1     0     0     0     0  0.0000000000e+00  0.0000000000e+00 -4.0000000000e+02  4.0000000000e+02  0.0000000000e+00 0. 9.
       23     2     1     2     0     0  0.0000000000e+00  0.0000000000e+00  0.0000000000e+00  8.0000000000e+02  8.0000000000e+02 0. 9.
        2     1     3     0   101     0 -1.2405742767e+02 -1.8158779323e+02  3.3411901935e+02  4.0000000000e+02  3.3000000000e-01 0. 9.
       -2     1     3     0     0   101  1.2405742767e+02  1.8158779323e+02 -3.3411901935e+02  4.0000000000e+02  3.3000000000e-01 0. 9.
#pdf   11  -11  1.000000e+00  1.000000e+00  8.000000e+02  1.000000e+00  1.000000e+00
</event>
<event>
     5  9999  1.000000e+00  8.000000e+02  8.014810e-03  9.824665e-02
       11    -1     0     0     0     0  0.0000000000e+00  0.0000000000e+00  4.0000000000e+02  4.0000000000e+02  0.0000000000e+00 0. 9.
      -11    -1     0     0     0     0  0.0000000000e+00  0.0000000000e+00 -4.0000000000e+02  4.0000000000e+02  0.0000000000e+00 0. 9.
       23     2     1     2     0     0  0.0000000000e+00  0.0000000000e+00  0.0000000000e+00  8.0000000000e+02  8.0000000000e+02 0. 9.
        2     1     3     0   101     0  6.7186057655e+01 -1.1822647720e+02  3.7617605565e+02  4.0000000000e+02  3.3000000000e-01 0. 9.
       -2     1     3     0     0   101 -6.7186057655e+01  1.1822647720e+02 -3.7617605565e+02  4.0000000000e+02  3.3000000000e-01 0. 9.
#pdf   11  -11  1.000000e+00  1.000000e+00  8.000000e+02  1.000000e+00  1.000000e+00
</event>
<event>
     5  9999  1.000000e+00  8.000000e+02  8.014810e-03  9.824665e-02
       11    -1     0     0     0     0  0.0000000000e+00  0.0000000000e+00  4.0000000000e+02  4.0000000000e+02  0.0000000000e+00 0. 9.
      -11    -1     0     0     0     0  0.0000000000e+00  0.0000000000e+00 -4.0000000000e+02  4.0000000000e+02  0.0000000000e+00 0. 9.
       23     2     1     2     0     0  0.0000000000e+00  0.0000000000e+00  0.0000000000e+00  8.0000000000e+02  8.0000000000e+02 0. 9.
        2     1     3     0   101     0 -2.3037577618e+02  3.0156722408e+02  1.2642824926e+02  4.0000000000e+02  3.3000000000e-01 0. 9.
       -2     1     3     0     0   101  2.3037577618e+02 -3.0156722408e+02 -1.2642824926e+02  4.0000000000e+02  3.3000000000e-01 0. 9.
#pdf   11  -11  1.000000e+00  1.000000e+00  8.000000e+02  1.000000e+00  1.000000e+00
</event>
<event>
     5  9999  1.000000e+00  8.000000e+02  8.014810e-03  9.824665e-02
       11    -1     0     0     0     0  0.0000000000e+00  0.0000000000e+00  4.0000000000e+02  4.0000000000e+02  0.0000000000e+00 0. 9.
      -11    -1     0     0     0     0  0.0000000000e+00  0.0000000000e+00 -4.0000000000e+02  4.0000000000e+02  0.0000000000e+00 0. 9.
       23     2     1     2     0     0  0.0000000000e+00  0.0000000000e+00  0.0000000000e+00  8.0000000000e+02  8.0000000000e+02 0. 9.
        2     1     3     0   101     0 -4.4146006365e+01 -2.9721676004e+01 -3.9644374531e+02  4.0000000000e+02  3.3000000000e-01 0. 9.
       -2     1     3     0     0   101  4.4146006365e+01  2.9721676004e+01  3.9644374531e+02  4.0000000000e+02  3.3000000000e-01 0. 9.
#pdf   11  -11  1.000000e+00  1.000000e+00  8.000000e+02  1.000000e+00  1.000000e+00
</event>
<event>
     5  9999  1.000000e+00  8.000000e+02  8.014810e-03  9.824665e-02
       11    -1     0     0     0     0  0.0000000000e+00  0.0000000000e+00  4.0000000000e+02  4.0000000000e+02  0.0000000000e+00 0. 9.
      -11    -1     0     0     0     0  0.0000000000e+00  0.0000000000e+00 -4.0000000000e+02  4.0000000000e+02  0.0000000000e+00 0. 9.
       23     2     1     2     0     0  0.0000000000e+00  0.0000000000e+00  0.0000000000e+00  8.0000000000e+02  8.0000000000e+02 0. 9.
        2     1     3     0   101     0  3.7499101200e+02  1.1403394077e+02  7.9861707791e+01  4.0000000000e+02  3.3000000000e-01 0. 9.
       -2     1     3     0     0   101 -3.7499101200e+02 -1.1403394077e+02 -7.9861707791e+01  4.0000000000e+02  3.3000000000e-01 0. 9.
#pdf   11  -11  1.000000e+00  1.000000e+00  8.000000e+02  1.000000e+00  1.000000e+00
</event>
<event>
     5  9999  1.000000e+00  8.000000e+02  8.014810e-03  9.824665e-02
       11    -1     0     0     0     0  0.0000000000e+00  0.0000000000e+00  4.0000000000e+02  4.0000000000e+02  0.0000000000e+00 0. 9.
      -11    -1     0     0     0     0  0.0000000000e+00  0.0000000000e+00 -4.0000000000e+02  4.0000000000e+02  0.0000000000e+00 0. 9.
       23     2     1     2     0     0  0.0000000000e+00  0.0000000000e+00  0.0000000000e+00  8.0000000000e+02  8.0000000000e+02 0. 9.
        2     1     3     0   101     0  3.7763219943e+01 -2.8172932693e+02  2.8142923919e+02  4.0000000000e+02  3.3000000000e-01 0. 9.
       -2     1     3     0     0   101 -3.7763219943e+01  2.8172932693e+02 -2.8142923919e+02  4.0000000000e+02  3.3000000000e-01 0. 9.
#pdf   11  -11  1.000000e+00  1.000000e+00  8.000000e+02  1.000000e+00  1.000000e+00
</event>
<event>
     5  9999  1.000000e+00  8.000000e+02  8.014810e-03  9.824665e-02
       11    -1     0     0     0     0  0.0000000000e+00  0.0000000000e+00  4.0000000000e+02  4.0000000000e+02  0.0000000000e+00 0. 9.
      -11    -1     0     0     0     0  0.0000000000e+00  0.0000000000e+00 -4.0000000000e+02  4.0000000000e+02  0.0000000000e+00 0. 9.
       23     2     1     2     0     0  0.0000000000e+00  0.0000000000e+00  0.0000000000e+00  8.0000000000e+02  8.0000000000e+02 0. 9.
        2     1     3     0   101     0 -3.3769206784e+01 -1.7735951066e+02  3.5693575858e+02  4.0000000000e+02  3.3000000000e-01 0. 9.
       -2     1     3     0     0   101  3.3769206784e+01  1.7735951066e+02 -3.5693575858e+02  4.0000000000e+02  3.3000000000e-01 0. 9.
#pdf   11  -11  1.000000e+00  1.000000e+00  8.000000e+02  1.000000e+00  1.000000e+00
</event>
<event>
     5  9999  1.000000e+00  8.000000e+02  8.014810e-03  9.824665e-02
       11    -1     0     0     0     0  0.0000000000e+00  0.0000000000e+00  4.0000000000e+02  4.0000000000e+02  0.0000000000e+00 0. 9.
      -11    -1     0     0     0     0  0.0000000000e+00  0.0000000000e+00 -4.0000000000e+02  4.0000000000e+02  0.0000000000e+00 0. 9.
       23     2     1     2     0     0  0.0000000000e+00  0.0000000000e+00  0.0000000000e+00  8.0000000000e+02  8.0000000000e+02 0. 9.
        2     1     3     0   101     0  2.3029474567e+02 -9.9663483049e+01  3.1149865387e+02  4.0000000000e+02  3.3000000000e-01 0. 9.
       -2     1     3     0     0   101 -2.3029474567e+02  9.9663483049e+01 -3.1149865387e+02  4.0000000000e+02  3.3000000000e-01 0. 9.
#pdf   11  -11  1.000000e+00  1.000000e+00  8.000000e+02  1.000000e+00  1.000000e+00
</event>
<event>
     5  9999  1.000000e+00  8.000000e+02  8.014810e-03  9.824665e-02
       11    -1     0     0     0     0  0.0000000000e+00  0.0000000000e+00  4.0000000000e+02  4.0000000000e+02  0.0000000000e+00 0. 9.
      -11    -1     0     0     0     0  0.0000000000e+00  0.0000000000e+00 -4.0000000000e+02  4.0000000000e+02  0.0000000000e+00 0. 9.
       23     2     1     2     0     0  0.0000000000e+00  0.0000000000e+00  0.0000000000e+00  8.0000000000e+02  8.0000000000e+02 0. 9.
        2     1     3     0   101     0 -1.6226432617e+02 -2.4992997407e+02  2.6684300181e+02  4.0000000000e+02  3.3000000000e-01 0. 9.
       -2     1     3     0     0   101  1.6226432617e+02  2.4992997407e+02 -2.6684300181e+02  4.0000000000e+02  3.3000000000e-01 0. 9.
#pdf   11  -11  1.000000e+00  1.000000e+00  8.000000e+02  1.000000e+00  1.000000e+00
</event>
<event>
     5  9999  1.000000e+00  8.000000e+02  8.014810e-03  9.824665e-02
       11    -1     0     0     0     0  0.0000000000e+00  0.0000000000e+00  4.0000000000e+02  4.0000000000e+02  0.0000000000e+00 0. 9.
      -11    -1     0     0     0     0  0.0000000000e+00  0.0000000000e+00 -4.0000000000e+02  4.0000000000e+02  0.0000000000e+00 0. 9.
       23     2     1     2     0     0  0.0000000000e+00  0.0000000000e+00  0.0000000000e+00  8.0000000000e+02  8.0000000000e+02 0. 9.
        2     1     3     0   101     0  6.3903837826e+00  8.2766803684e+01 -3.9129108130e+02  4.0000000000e+02  3.3000000000e-01 0. 9.
       -2     1     3     0     0   101 -6.3903837826e+00 -8.2766803684e+01  3.9129108130e+02  4.0000000000e+02  3.3000000000e-01 0. 9.
#pdf   11  -11  1.000000e+00  1.000000e+00  8.000000e+02  1.000000e+00  1.000000e+00
</event>
<event>
     5  9999  1.000000e+00  8.000000e+02  8.014810e-03  9.824665e-02
       11    -1     0     0     0     0  0.0000000000e+00  0.0000000000e+00  4.0000000000e+02  4.0000000000e+02  0.0000000000e+00 0. 9.
      -11    -1     0     0     0     0  0.0000000000e+00  0.0000000000e+00 -4.0000000000e+02  4.0000000000e+02  0.0000000000e+00 0. 9.
       23     2     1     2     0     0  0.0000000000e+00  0.0000000000e+00  0.0000000000e+00  8.0000000000e+02  8.0000000000e+02 0. 9.
        2     1     3     0   101     0  2.8826004375e+02  2.5576398520e+02  1.0719525248e+02  4.0000000000e+02  3.3000000000e-01 0. 9.
       -2     1     3     0     0   101 -2.8826004375e+02 -2.5576398520e+02 -1.0719525248e+02  4.0000000000e+02  3.3000000000e-01 0. 9.
#pdf   11  -11  1.000000e+00  1.000000e+00  8.000000e+02  1.000000e+00  1.000000e+00
</event>
<event>
     5  9999  1.000000e+00  8.000000e+02  8.014810e-03  9.824665e-02
       11    -1     0     0     0     0  0.0000000000e+00  0.0000000000e+00  4.0000000000e+02  4.0000000000e+02  0.0000000000e+00 0. 9.
      -11    -1     0     0     0     0  0.0000000000e+00  0.0000000000e+00 -4.0000000000e+02  4.0000000000e+02  0.0000000000e+00 0. 9.
       23     2     1     2     0     0  0.0000000000e+00  0.0000000000e+00  0.0000000000e+00  8.0000000000e+02  8.0000000000e+02 0. 9.
        2     1     3     0   101     0  3.3935138303e+02  5.9978086147e+01  2.0308411833e+02  4.0000000000e+02  3.3000000000e-01 0. 9.
       -2     1     3     0     0   101 -3.3935138303e+02 -5.9978086147e+01 -2.0308411833e+02  4.0000000000e+02  3.3000000000e-01 0. 9.
#pdf   11  -11  1.000000e+00  1.000000e+00  8.000000e+02  1.000000e+00  1.000000e+00
</event>
<event>
     5  9999  1.000000e+00  8.000000e+02  8.014810e-03  9.824665e-02
       11    -1     0     0     0     0  0.0000000000e+00  0.0000000000e+00  4.0000000000e+02  4.0000000000e+02  0.0000000000e+00 0. 9.
      -11    -1     0     0     0     0  0.0000000000e+00  0.0000000000e+00 -4.0000000000e+02  4.0000000000e+02  0.0000000000e+00 0. 9.
       23     2     1     2     0     0  0.0000000000e+00  0.0000000000e+00  0.0000000000e+00  8.0000000000e+02  8.0000000000e+02 0. 9.
        2     1     3     0   101     0  1.1453463763e+02 -2.5782734754e+02  2.8356086956e+02  4.0000000000e+02  3.3000000000e-01 0. 9.
       -2     1     3     0     0   101 -1.1453463763e+02  2.5782734754e+02 -2.8356086956e+02  4.0000000000e+02  3.3000000000e-01 0. 9.
#pdf   11  -11  1.000000e+00  1.000000e+00  8.000000e+02  1.000000e+00  1.000000e+00
</event>
<event>
     5  9999  1.000000e+00  8.000000e+02  8.014810e-03  9.824665e-02
       11    -1     0     0     0     0  0.0000000000e+00  0.0000000000e+00  4.0000000000e+02  4.0000000000e+02  0.0000000000e+00 0. 9.
      -11    -1     0     0     0     0  0.0000000000e+00  0.0000000000e+00 -4.0000000000e+02  4.0000000000e+02  0.0000000000e+00 0. 9.
       23     2     1     2     0     0  0.0000000000e+00  0.0000000000e+00  0.0000000000e+00  8.0000000000e+02  8.0000000000e+02 0. 9.
        2     1     3     0   101     0 -6.6106729475e+01 -1.1626792843e+02  3.7697686963e+02  4.0000000000e+02  3.3000000000e-01 0. 9.
       -2     1     3     0     0   101  6.6106729475e+01  1.1626792843e+02 -3.7697686963e+02  4.0000000000e+02  3.3000000000e-01 0. 9.
#pdf   11  -11  1.000000e+00  1.000000e+00  8.000000e+02  1.000000e+00  1.000000e+00
</event>
<event>
     5  9999  1.000000e+00  8.000000e+02  8.014810e-03  9.824665e-02
       11    -1     0     0     0     0  0.0000000000e+00  0.0000000000e+00  4.0000000000e+02  4.0000000000e+02  0.0000000000e+00 0. 9.
      -11    -1     0     0     0     0  0.0000000000e+00  0.0000000000e+00 -4.0000000000e+02  4.0000000000e+02  0.0000000000e+00 0. 9.
       23     2     1     2     0     0  0.0000000000e+00  0.0000000000e+00  0.0000000000e+00  8.0000000000e+02  8.0000000000e+02 0. 9.
        2     1     3     0   101     0  9.9477205323e+00 -1.7614411781e+01  3.9948800539e+02  4.0000000000e+02  3.3000000000e-01 0. 9.
       -2     1     3     0     0   101 -9.9477205323e+00  1.7614411781e+01 -3.9948800539e+02  4.0000000000e+02  3.3000000000e-01 0. 9.
#pdf   11  -11  1.000000e+00  1.000000e+00  8.000000e+02  1.000000e+00  1.000000e+00
</event>
<event>
     5  9999  1.000000e+00  8.000000e+02  8.014810e-03  9.824665e-02
       11    -1     0     0     0     0  0.0000000000e+00  0.0000000000e+00  4.0000000000e+02  4.0000000000e+02  0.0000000000e+00 0. 9.
      -11    -1     0     0     0     0  0.0000000000e+00  0.0000000000e+00 -4.0000000000e+02  4.0000000000e+02  0.0000000000e+00 0. 9.
       23     2     1     2     0     0  0.0000000000e+00  0.0000000000e+00  0.0000000000e+00  8.0000000000e+02  8.0000000000e+02 0. 9.
        2     1     3     0   101     0 -2.8041931913e+02 -2.7794966178e+02  6.4100562207e+01  4.0000000000e+02  3.3000000000e-01 0. 9.
       -2     1     3     0     0   101  2.8041931913e+02  2.7794966178e+02 -6.4100562207e+01  4.0000000000e+02  3.3000000000e-01 0. 9.
#pdf   11  -11  1.000000e+00  1.000000e+00  8.000000e+02  1.000000e+00  1.000000e+00
</event>
<event>
     5  9999  1.000000e+00  8.000000e+02  8.014810e-03  9.824665e-02
       11    -1     0     0     0     0  0.0000000000e+00  0.0000000000e+00  4.0000000000e+02  4.0000000000e+02  0.0000000000e+00 0. 9.
      -11    -1     0     0     0     0  0.0000000000e+00  0.0000000000e+00 -4.0000000000e+02  4.0000000000e+02  0.0000000000e+00 0. 9.
       23     2     1     2     0     0  0.0000000000e+00  0.0000000000e+00  0.0000000000e+00  8.0000000000e+02  8.0000000000e+02 0. 9.
        2     1     3     0   101     0 -3.0483881606e+01 -6.4723855932e+01  3.9354980185e+02  4.0000000000e+02  3.3000000000e-01 0. 9.
       -2     1     3     0     0   101  3.0483881606e+01  6.4723855932e+01 -3.9354980185e+02  4.0000000000e+02  3.3000000000e-01 0. 9.
#pdf   11  -11  1.000000e+00  1.000000e+00  8.000000e+02  1.000000e+00  1.000000e+00
</event>
<event>
     5  9999  1.000000e+00  8.000000e+02  8.014810e-03  9.824665e-02
       11    -1     0     0     0     0  0.0000000000e+00  0.0000000000e+00  4.0000000000e+02  4.0000000000e+02  0.0000000000e+00 0. 9.
      -11    -1     0     0     0     0  0.0000000000e+00  0.0000000000e+00 -4.0000000000e+02  4.0000000000e+02  0.0000000000e+00 0. 9.
       23     2     1     2     0     0  0.0000000000e+00  0.0000000000e+00  0.0000000000e+00  8.0000000000e+02  8.0000000000e+02 0. 9.
        2     1     3     0   101     0 -1.3430682715e+02  3.7054139748e+02  6.8268880408e+01  4.0000000000e+02  3.3000000000e-01 0. 9.
       -2     1     3     0     0   101  1.3430682715e+02 -3.7054139748e+02 -6.8268880408e+01  4.0000000000e+02  3.3000000000e-01 0. 9.
#pdf   11  -11  1.000000e+00  1.000000e+00  8.000000e+02  1.000000e+00  1.000000e+00
</event>
<event>
     5  9999  1.000000e+00  8.000000e+02  8.014810e-03  9.824665e-02
       11    -1     0     0     0     0  0.0000000000e+00  0.0000000000e+00  4.0000000000e+02  4.0000000000e+02  0.0000000000e+00 0. 9.
      -11    -1     0     0     0     0  0.0000000000e+00  0.0000000000e+00 -4.0000000000e+02  4.0000000000e+02  0.0000000000e+00 0. 9.
       23     2     1     2     0     0  0.0000000000e+00  0.0000000000e+00  0.0000000000e+00  8.0000000000e+02  8.0000000000e+02 0. 9.
        2     1     3     0   101     0  3.2168984564e+02 -1.3609127156e+00  2.3772606552e+02  4.0000000000e+02  3.3000000000e-01 0. 9.
       -2     1     3     0     0   101 -3.2168984564e+02  1.3609127156e+00 -2.3772606552e+02  4.0000000000e+02  3.3000000000e-01 0. 9.
#pdf   11  -11  1.000000e+00  1.000000e+00  8.000000e+02  1.000000e+00  1.000000e+00
</event>
<event>
     5  9999  1.000000e+00  8.000000e+02  8.014810e-03  9.824665e-02
       11    -1     0     0     0     0  0.0000000000e+00  0.0000000000e+00  4.0000000000e+02  4.0000000000e+02  0.0000000000e+00 0. 9.
      -11    -1     0     0     0     0  0.0000000000e+00  0.0000000000e+00 -4.0000000000e+02  4.0000000000e+02  0.0000000000e+00 0. 9.
       23     2     1     2     0     0  0.0000000000e+00  0.0000000000e+00  0.0000000000e+00  8.0000000000e+02  8.0000000000e+02 0. 9.
        2     1     3     0   101     0 -1.4590924978e+02  2.1604345850e+02  3.0337370678e+02  4.0000000000e+02  3.3000000000e-01 0. 9.
       -2     1     3     0     0   101  1.4590924978e+02 -2.1604345850e+02 -3.0337370678e+02  4.0000000000e+02  3.3000000000e-01 0. 9.
#pdf   11  -11  1.000000e+00  1.000000e+00  8.000000e+02  1.000000e+00  1.000000e+00
</event>
<event>
     5  9999  1.000000e+00  8.000000e+02  8.014810e-03  9.824665e-02
       11    -1     0     0     0     0  0.0000000000e+00  0.0000000000e+00  4.0000000000e+02  4.0000000000e+02  0.0000000000e+00 0. 9.
      -11    -1     0     0     0     0  0.0000000000e+00  0.0000000000e+00 -4.0000000000e+02  4.0000000000e+02  0.0000000000e+00 0. 9.
       23     2     1     2     0     0  0.0000000000e+00  0.0000000000e+00  0.0000000000e+00  8.0000000000e+02  8.0000000000e+02 0. 9.
        2     1     3     0   101     0 -6.1250104441e+01 -1.3255515431e+02  3.7239420897e+02  4.0000000000e+02  3.3000000000e-01 0. 9.
       -2     1     3     0     0   101  6.1250104441e+01  1.3255515431e+02 -3.7239420897e+02  4.0000000000e+02  3.3000000000e-01 0. 9.
#pdf   11  -11  1.000000e+00  1.000000e+00  8.000000e+02  1.000000e+00  1.000000e+00
</event>
<event>
     5  9999  1.000000e+00  8.000000e+02  8.014810e-03  9.824665e-02
       11    -1     0     0     0     0  0.0000000000e+00  0.0000000000e+00  4.0000000000e+02  4.0000000000e+02  0.0000000000e+00 0. 9.
      -11    -1     0     0     0     0  0.0000000000e+00  0.0000000000e+00 -4.0000000000e+02  4.0000000000e+02  0.0000000000e+00 0. 9.
       23     2     1     2     0     0  0.0000000000e+00  0.0000000000e+00  0.0000000000e+00  8.0000000000e+02  8.0000000000e+02 0. 9.
        2     1     3     0   101     0 -3.8550954495e+02 -8.7140667119e+01  6.1553115180e+01  4.0000000000e+02  3.3000000000e-01 0. 9.
       -2     1     3     0     0   101  3.8550954495e+02  8.7140667119e+01 -6.1553115180e+01  4.0000000000e+02  3.3000000000e-01 0. 9.
#pdf   11  -11  1.000000e+00  1.000000e+00  8.000000e+02  1.000000e+00  1.000000e+00
</event>
<event>
     5  9999  1.000000e+00  8.000000e+02  8.014810e-03  9.824665e-02
       11    -1     0     0     0     0  0.0000000000e+00  0.0000000000e+00  4.0000000000e+02  4.0000000000e+02  0.0000000000e+00 0. 9.
      -11    -1     0     0     0     0  0.0000000000e+00  0.0000000000e+00 -4.0000000000e+02  4.0000000000e+02  0.0000000000e+00 0. 9.
       23     2     1     2     0     0  0.0000000000e+00  0.0000000000e+00  0.0000000000e+00  8.0000000000e+02  8.0000000000e+02 0. 9.
        2     1     3     0   101     0  2.0323899450e+01 -3.9250138527e+01  3.9755031988e+02  4.0000000000e+02  3.3000000000e-01 0. 9.
       -2     1     3     0     0   101 -2.0323899450e+01  3.9250138527e+01 -3.9755031988e+02  4.0000000000e+02  3.3000000000e-01 0. 9.
#pdf   11  -11  1.000000e+00  1.000000e+00  8.000000e+02  1.000000e+00  1.000000e+00
</event>
<event>
     5  9999  1.000000e+00  8.000000e+02  8.014810e-03  9.824665e-02
       11    -1     0     0     0     0  0.0000000000e+00  0.0000000000e+00  4.0000000000e+02  4.0000000000e+02  0.0000000000e+00 0. 9.
      -11    -1     0     0     0     0  0.0000000000e+00  0.0000000000e+00 -4.0000000000e+02  4.0000000000e+02  0.0000000000e+00 0. 9.
       23     2     1     2     0     0  0.0000000000e+00  0.0000000000e+00  0.0000000000e+00  8.0000000000e+02  8.0000000000e+02 0. 9.
        2     1     3     0   101     0 -1.6699286475e+02 -7.5393068669e+01 -3.5556878296e+02  4.0000000000e+02  3.3000000000e-01 0. 9.
       -2     1     3     0     0   101  1.6699286475e+02  7.5393068669e+01  3.5556878296e+02  4.0000000000e+02  3.3000000000e-01 0. 9.
#pdf   11  -11  1.000000e+00  1.000000e+00  8.000000e+02  1.000000e+00  1.000000e+00
</event>
<event>
     5  9999  1.000000e+00  8.000000e+02  8.014810e-03  9.824665e-02
       11    -1     0     0     0     0  0.0000000000e+00  0.0000000000e+00  4.0000000000e+02  4.0000000000e+02  0.0000000000e+00 0. 9.
      -11    -1     0     0     0     0  0.0000000000e+00  0.0000000000e+00 -4.0000000000e+02  4.0000000000e+02  0.0000000000e+00 0. 9.
       23     2     1     2     0     0  0.0000000000e+00  0.0000000000e+00  0.0000000000e+00  8.0000000000e+02  8.0000000000e+02 0. 9.
        2     1     3     0   101     0  1.8697300106e+02  3.3635415917e+02 -1.0911859411e+02  4.0000000000e+02  3.3000000000e-01 0. 9.
       -2     1     3     0     0   101 -1.8697300106e+02 -3.3635415917e+02  1.0911859411e+02  4.0000000000e+02  3.3000000000e-01 0. 9.
#pdf   11  -11  1.000000e+00  1.000000e+00  8.000000e+02  1.000000e+00  1.000000e+00
</event>
<event>
     5  9999  1.000000e+00  8.000000e+02  8.014810e-03  9.824665e-02
       11    -1     0     0     0     0  0.0000000000e+00  0.0000000000e+00  4.0000000000e+02  4.0000000000e+02  0.0000000000e+00 0. 9.
      -11    -1     0     0     0     0  0.0000000000e+00  0.0000000000e+00 -4.0000000000e+02  4.0000000000e+02  0.0000000000e+00 0. 9.
       23     2     1     2     0     0  0.0000000000e+00  0.0000000000e+00  0.0000000000e+00  8.0000000000e+02  8.0000000000e+02 0. 9.
        2     1     3     0   101     0 -1.4496679672e+02  3.6992483524e+02 -4.6261595505e+01  4.0000000000e+02  3.3000000000e-01 0. 9.
       -2     1     3     0     0   101  1.4496679672e+02 -3.6992483524e+02  4.6261595505e+01  4.0000000000e+02  3.3000000000e-01 0. 9.
#pdf   11  -11  1.000000e+00  1.000000e+00  8.000000e+02  1.000000e+00  1.000000e+00
</event>
<event>
     5  9999  1.000000e+00  8.000000e+02  8.014810e-03  9.824665e-02
       11    -1     0     0     0     0  0.0000000000e+00  0.0000000000e+00  4.0000000000e+02  4.0000000000e+02  0.0000000000e+00 0. 9.
      -11    -1     0     0     0     0  0.0000000000e+00  0.0000000000e+00 -4.0000000000e+02  4.0000000000e+02  0.0000000000e+00 0. 9.
       23     2     1     2     0     0  0.0000000000e+00  0.0000000000e+00  0.0000000000e+00  8.0000000000e+02  8.0000000000e+02 0. 9.
        2     1     3     0   101     0  7.7096107625e+01 -1.1554873599e+02  3.7510607953e+02  4.0000000000e+02  3.3000000000e-01 0. 9.
       -2     1     3     0     0   101 -7.7096107625e+01  1.1554873599e+02 -3.7510607953e+02  4.0000000000e+02  3.3000000000e-01 0. 9.
#pdf   11  -11  1.000000e+00  1.000000e+00  8.000000e+02  1.000000e+00  1.000000e+00
</event>
<event>
     5  9999  1.000000e+00  8.000000e+02  8.014810e-03  9.824665e-02
       11    -1     0     0     0     0  0.0000000000e+00  0.0000000000e+00  4.0000000000e+02  4.0000000000e+02  0.0000000000e+00 0. 9.
      -11    -1     0     0     0     0  0.0000000000e+00  0.0000000000e+00 -4.0000000000e+02  4.0000000000e+02  0.0000000000e+00 0. 9.
       23     2     1     2     0     0  0.0000000000e+00  0.0000000000e+00  0.0000000000e+00  8.0000000000e+02  8.0000000000e+02 0. 9.
        2     1     3     0   101     0  2.0902120916e+02 -1.0565256031e+02  3.2426464766e+02  4.0000000000e+02  3.3000000000e-01 0. 9.
       -2     1     3     0     0   101 -2.0902120916e+02  1.0565256031e+02 -3.2426464766e+02  4.0000000000e+02  3.3000000000e-01 0. 9.
#pdf   11  -11  1.000000e+00  1.000000e+00  8.000000e+02  1.000000e+00  1.000000e+00
</event>
<event>
     5  9999  1.000000e+00  8.000000e+02  8.014810e-03  9.824665e-02
       11    -1     0     0     0     0  0.0000000000e+00  0.0000000000e+00  4.0000000000e+02  4.0000000000e+02  0.0000000000e+00 0. 9.
      -11    -1     0     0     0     0  0.0000000000e+00  0.0000000000e+00 -4.0000000000e+02  4.0000000000e+02  0.0000000000e+00 0. 9.
       23     2     1     2     0     0  0.0000000000e+00  0.0000000000e+00  0.0000000000e+00  8.0000000000e+02  8.0000000000e+02 0. 9.
        2     1     3     0   101     0 -2.3532178145e+02  1.3383840438e+02  2.9446703006e+02  4.0000000000e+02  3.3000000000e-01 0. 9.
       -2     1     3     0     0   101  2.3532178145e+02 -1.3383840438e+02 -2.9446703006e+02  4.0000000000e+02  3.3000000000e-01 0. 9.
#pdf   11  -11  1.000000e+00  1.000000e+00  8.000000e+02  1.000000e+00  1.000000e+00
</event>
<event>
     5  9999  1.000000e+00  8.000000e+02  8.014810e-03  9.824665e-02
       11    -1     0     0     0     0  0.0000000000e+00  0.0000000000e+00  4.0000000000e+02  4.0000000000e+02  0.0000000000e+00 0. 9.
      -11    -1     0     0     0     0  0.0000000000e+00  0.0000000000e+00 -4.0000000000e+02  4.0000000000e+02  0.0000000000e+00 0. 9.
       23     2     1     2     0     0  0.0000000000e+00  0.0000000000e+00  0.0000000000e+00  8.0000000000e+02  8.0000000000e+02 0. 9.
        2     1     3     0   101     0  2.1110037179e+02  9.6947758551e+01  3.2563423690e+02  4.0000000000e+02  3.3000000000e-01 0. 9.
       -2     1     3     0     0   101 -2.1110037179e+02 -9.6947758551e+01 -3.2563423690e+02  4.0000000000e+02  3.3000000000e-01 0. 9.
#pdf   11  -11  1.000000e+00  1.000000e+00  8.000000e+02  1.000000e+00  1.000000e+00
</event>
<event>
     5  9999  1.000000e+00  8.000000e+02  8.014810e-03  9.824665e-02
       11    -1     0     0     0     0  0.0000000000e+00  0.0000000000e+00  4.0000000000e+02  4.0000000000e+02  0.0000000000e+00 0. 9.
      -11    -1     0     0     0     0  0.0000000000e+00  0.0000000000e+00 -4.0000000000e+02  4.0000000000e+02  0.0000000000e+00 0. 9.
       23     2     1     2     0     0  0.0000000000e+00  0.0000000000e+00  0.0000000000e+00  8.0000000000e+02  8.0000000000e+02 0. 9.
        2     1     3     0   101     0 -3.5391305839e+02  1.4365241521e+02  1.1878308720e+02  4.0000000000e+02  3.3000000000e-01 0. 9.
       -2     1     3     0     0   101  3.5391305839e+02 -1.4365241521e+02 -1.1878308720e+02  4.0000000000e+02  3.3000000000e-01 0. 9.
#pdf   11  -11  1.000000e+00  1.000000e+00  8.000000e+02  1.000000e+00  1.000000e+00
</event>
<event>
     5  9999  1.000000e+00  8.000000e+02  8.014810e-03  9.824665e-02
       11    -1     0     0     0     0  0.0000000000e+00  0.0000000000e+00  4.0000000000e+02  4.0000000000e+02  0.0000000000e+00 0. 9.
      -11    -1     0     0     0     0  0.0000000000e+00  0.0000000000e+00 -4.0000000000e+02  4.0000000000e+02  0.0000000000e+00 0. 9.
       23     2     1     2     0     0  0.0000000000e+00  0.0000000000e+00  0.0000000000e+00  8.0000000000e+02  8.0000000000e+02 0. 9.
        2     1     3     0   101     0  2.7580511088e+02 -2.5413165557e+02  1.3909900629e+02  4.0000000000e+02  3.3000000000e-01 0. 9.
       -2     1     3     0     0   101 -2.7580511088e+02  2.5413165557e+02 -1.3909900629e+02  4.0000000000e+02  3.3000000000e-01 0. 9.
#pdf   11  -11  1.000000e+00  1.000000e+00  8.000000e+02  1.000000e+00  1.000000e+00
</event>
<event>
     5  9999  1.000000e+00  8.000000e+02  8.014810e-03  9.824665e-02
       11    -1     0     0     0     0  0.0000000000e+00  0.0000000000e+00  4.0000000000e+02  4.0000000000e+02  0.0000000000e+00 0. 9.
      -11    -1     0     0     0     0  0.0000000000e+00  0.0000000000e+00 -4.0000000000e+02  4.0000000000e+02  0.0000000000e+00 0. 9.
       23     2     1     2     0     0  0.0000000000e+00  0.0000000000e+00  0.0000000000e+00  8.0000000000e+02  8.0000000000e+02 0. 9.
        2     1     3     0   101     0 -3.0246097332e+01 -1.4058452541e+02  3.7325735882e+02  4.0000000000e+02  3.3000000000e-01 0. 9.
       -2     1     3     0     0   101  3.0246097332e+01  1.4058452541e+02 -3.7325735882e+02  4.0000000000e+02  3.3000000000e-01 0. 9.
#pdf   11  -11  1.000000e+00  1.000000e+00  8.000000e+02  1.000000e+00  1.000000e+00
</event>
<event>
     5  9999  1.000000e+00  8.000000e+02  8.014810e-03  9.824665e-02
       11    -1     0     0     0     0  0.0000000000e+00  0.0000000000e+00  4.0000000000e+02  4.0000000000e+02  0.0000000000e+00 0. 9.
      -11    -1     0     0     0     0  0.0000000000e+00  0.0000000000e+00 -4.0000000000e+02  4.0000000000e+02  0.0000000000e+00 0. 9.
       23     2     1     2     0     0  0.0000000000e+00  0.0000000000e+00  0.0000000000e+00  8.0000000000e+02  8.0000000000e+02 0. 9.
        2     1     3     0   101     0  1.3490182743e+02  8.4897860478e+01  3.6687019686e+02  4.0000000000e+02  3.3000000000e-01 0. 9.
       -2     1     3     0     0   101 -1.3490182743e+02 -8.4897860478e+01 -3.6687019686e+02  4.0000000000e+02  3.3000000000e-01 0. 9.
#pdf   11  -11  1.000000e+00  1.000000e+00  8.000000e+02  1.000000e+00  1.000000e+00
</event>
<event>
     5  9999  1.000000e+00  8.000000e+02  8.014810e-03  9.824665e-02
       11    -1     0     0     0     0  0.0000000000e+00  0.0000000000e+00  4.0000000000e+02  4.0000000000e+02  0.0000000000e+00 0. 9.
      -11    -1     0     0     0     0  0.0000000000e+00  0.0000000000e+00 -4.0000000000e+02  4.0000000000e+02  0.0000000000e+00 0. 9.
       23     2     1     2     0     0  0.0000000000e+00  0.0000000000e+00  0.0000000000e+00  8.0000000000e+02  8.0000000000e+02 0. 9.
        2     1     3     0   101     0  5.2641041573e+01  3.8814275113e+02  8.1080309469e+01  4.0000000000e+02  3.3000000000e-01 0. 9.
       -2     1     3     0     0   101 -5.2641041573e+01 -3.8814275113e+02 -8.1080309469e+01  4.0000000000e+02  3.3000000000e-01 0. 9.
#pdf   11  -11  1.000000e+00  1.000000e+00  8.000000e+02  1.000000e+00  1.000000e+00
</event>
<event>
     5  9999  1.000000e+00  8.000000e+02  8.014810e-03  9.824665e-02
       11    -1     0     0     0     0  0.0000000000e+00  0.0000000000e+00  4.0000000000e+02  4.0000000000e+02  0.0000000000e+00 0. 9.
      -11    -1     0     0     0     0  0.0000000000e+00  0.0000000000e+00 -4.0000000000e+02  4.0000000000e+02  0.0000000000e+00 0. 9.
       23     2     1     2     0     0  0.0000000000e+00  0.0000000000e+00  0.0000000000e+00  8.0000000000e+02  8.0000000000e+02 0. 9.
        2     1     3     0   101     0 -5.5897423954e+01 -1.8512855219e+02  3.5014680958e+02  4.0000000000e+02  3.3000000000e-01 0. 9.
       -2     1     3     0     0   101  5.5897423954e+01  1.8512855219e+02 -3.5014680958e+02  4.0000000000e+02  3.3000000000e-01 0. 9.
#pdf   11  -11  1.000000e+00  1.000000e+00  8.000000e+02  1.000000e+00  1.000000e+00
</event>
<event>
     5  9999  1.000000e+00  8.000000e+02  8.014810e-03  9.824665e-02
       11    -1     0     0     0     0  0.0000000000e+00  0.0000000000e+00  4.0000000000e+02  4.0000000000e+02  0.0000000000e+00 0. 9.
      -11    -1     0     0     0     0  0.0000000000e+00  0.0000000000e+00 -4.0000000000e+02  4.0000000000e+02  0.0000000000e+00 0. 9.
       23     2     1     2     0     0  0.0000000000e+00  0.0000000000e+00  0.0000000000e+00  8.0000000000e+02  8.0000000000e+02 0. 9.
        2     1     3     0   101     0  8.8581132826e+01 -3.6981759726e+02  1.2404925941e+02  4.0000000000e+02  3.3000000000e-01 0. 9.
       -2     1     3     0     0   101 -8.8581132826e+01  3.6981759726e+02 -1.2404925941e+02  4.0000000000e+02  3.3000000000e-01 0. 9.
#pdf   11  -11  1.000000e+00  1.000000e+00  8.000000e+02  1.000000e+00  1.000000e+00
</event>
<event>
     5  9999  1.000000e+00  8.000000e+02  8.014810e-03  9.824665e-02
       11    -1     0     0     0     0  0.0000000000e+00  0.0000000000e+00  4.0000000000e+02  4.0000000000e+02  0.0000000000e+00 0. 9.
      -11    -1     0     0     0     0  0.0000000000e+00  0.0000000000e+00 -4.0000000000e+02  4.0000000000e+02  0.0000000000e+00 0. 9.
       23     2     1     2     0     0  0.0000000000e+00  0.0000000000e+00  0.0000000000e+00  8.0000000000e+02  8.0000000000e+02 0. 9.
        2     1     3     0   101     0 -3.2864250375e+02 -2.4853149838e+01  2.2666344383e+02  4.0000000000e+02  3.3000000000e-01 0. 9.
       -2     1     3     0     0   101  3.2864250375e+02  2.4853149838e+01 -2.2666344383e+02  4.0000000000e+02  3.3000000000e-01 0. 9.
#pdf   11  -11  1.000000e+00  1.000000e+00  8.000000e+02  1.000000e+00  1.000000e+00
</event>
<event>
     5  9999  1.000000e+00  8.000000e+02  8.014810e-03  9.824665e-02
       11    -1     0     0     0     0  0.0000000000e+00  0.0000000000e+00  4.0000000000e+02  4.0000000000e+02  0.0000000000e+00 0. 9.
      -11    -1     0     0     0     0  0.0000000000e+00  0.0000000000e+00 -4.0000000000e+02  4.0000000000e+02  0.0000000000e+00 0. 9.
       23     2     1     2     0     0  0.0000000000e+00  0.0000000000e+00  0.0000000000e+00  8.0000000000e+02  8.0000000000e+02 0. 9.
        2     1     3     0   101     0 -4.2998799371e+01  3.7595822043e+02  1.2963954198e+02  4.0000000000e+02  3.3000000000e-01 0. 9.
       -2     1     3     0     0   101  4.2998799371e+01 -3.7595822043e+02 -1.2963954198e+02  4.0000000000e+02  3.3000000000e-01 0. 9.
#pdf   11  -11  1.000000e+00  1.000000e+00  8.000000e+02  1.000000e+00  1.000000e+00
</event>
<event>
     5  9999  1.000000e+00  8.000000e+02  8.014810e-03  9.824665e-02
       11    -1     0     0     0     0  0.0000000000e+00  0.0000000000e+00  4.0000000000e+02  4.0000000000e+02  0.0000000000e+00 0. 9.
      -11    -1     0     0     0     0  0.0000000000e+00  0.0000000000e+00 -4.0000000000e+02  4.0000000000e+02  0.0000000000e+00 0. 9.
       23     2     1     2     0     0  0.0000000000e+00  0.0000000000e+00  0.0000000000e+00  8.0000000000e+02  8.0000000000e+02 0. 9.
        2     1     3     0   101     0 -2.2052984573e+02  2.4975534989e+02  2.2133400878e+02  4.0000000000e+02  3.3000000000e-01 0. 9.
       -2     1     3     0     0   101  2.2052984573e+02 -2.4975534989e+02 -2.2133400878e+02  4.0000000000e+02  3.3000000000e-01 0. 9.
#pdf   11  -11  1.000000e+00  1.000000e+00  8.000000e+02  1.000000e+00  1.000000e+00
</event>
<event>
     5  9999  1.000000e+00  8.000000e+02  8.014810e-03  9.824665e-02
       11    -1     0     0     0     0  0.0000000000e+00  0.0000000000e+00  4.0000000000e+02  4.0000000000e+02  0.0000000000e+00 0. 9.
      -11    -1     0     0     0     0  0.0000000000e+00  0.0000000000e+00 -4.0000000000e+02  4.0000000000e+02  0.0000000000e+00 0. 9.
       23     2     1     2     0     0  0.0000000000e+00  0.0000000000e+00  0.0000000000e+00  8.0000000000e+02  8.0000000000e+02 0. 9.
        2     1     3     0   101     0  1.7589917146e+02  2.6689399296e+02  2.4047238740e+02  4.0000000000e+02  3.3000000000e-01 0. 9.
       -2     1     3     0     0   101 -1.7589917146e+02 -2.6689399296e+02 -2.4047238740e+02  4.0000000000e+02  3.3000000000e-01 0. 9.
#pdf   11  -11  1.000000e+00  1.000000e+00  8.000000e+02  1.000000e+00  1.000000e+00
</event>
<event>
     5  9999  1.000000e+00  8.000000e+02  8.014810e-03  9.824665e-02
       11    -1     0     0     0     0  0.0000000000e+00  0.0000000000e+00  4.0000000000e+02  4.0000000000e+02  0.0000000000e+00 0. 9.
      -11    -1     0     0     0     0  0.0000000000e+00  0.0000000000e+00 -4.0000000000e+02  4.0000000000e+02  0.0000000000e+00 0. 9.
       23     2     1     2     0     0  0.0000000000e+00  0.0000000000e+00  0.0000000000e+00  8.0000000000e+02  8.0000000000e+02 0. 9.
        2     1     3     0   101     0 -5.7974227949e-01 -2.2599515405e+02  3.3003900579e+02  4.0000000000e+02  3.3000000000e-01 0. 9.
       -2     1     3     0     0   101  5.7974227949e-01  2.2599515405e+02 -3.3003900579e+02  4.0000000000e+02  3.3000000000e-01 0. 9.
#pdf   11  -11  1.000000e+00  1.000000e+00  8.000000e+02  1.000000e+00  1.000000e+00
</event>
<event>
     5  9999  1.000000e+00  8.000000e+02  8.014810e-03  9.824665e-02
       11    -1     0     0     0     0  0.0000000000e+00  0.0000000000e+00  4.0000000000e+02  4.0000000000e+02  0.0000000000e+00 0. 9.
      -11    -1     0     0     0     0  0.0000000000e+00  0.0000000000e+00 -4.0000000000e+02  4.0000000000e+02  0.0000000000e+00 0. 9.
       23     2     1     2     0     0  0.0000000000e+00  0.0000000000e+00  0.0000000000e+00  8.0000000000e+02  8.0000000000e+02 0. 9.
        2     1     3     0   101     0 -1.1067958223e+02  6.5215206238e+01  3.7880984419e+02  4.0000000000e+02  3.3000000000e-01 0. 9.
       -2     1     3     0     0   101  1.1067958223e+02 -6.5215206238e+01 -3.7880984419e+02  4.0000000000e+02  3.3000000000e-01 0. 9.
#pdf   11  -11  1.000000e+00  1.000000e+00  8.000000e+02  1.000000e+00  1.000000e+00
</event>
<event>
     5  9999  1.000000e+00  8.000000e+02  8.014810e-03  9.824665e-02
       11    -1     0     0     0     0  0.0000000000e+00  0.0000000000e+00  4.0000000000e+02  4.0000000000e+02  0.0000000000e+00 0. 9.
      -11    -1     0     0     0     0  0.0000000000e+00  0.0000000000e+00 -4.0000000000e+02  4.0000000000e+02  0.0000000000e+00 0. 9.
       23     2     1     2     0     0  0.0000000000e+00  0.0000000000e+00  0.0000000000e+00  8.0000000000e+02  8.0000000000e+02 0. 9.
        2     1     3     0   101     0 -1.0542288421e+02 -3.7731036574e+02 -8.0763819175e+01  4.0000000000e+02  3.3000000000e-01 0. 9.
       -2     1     3     0     0   101  1.0542288421e+02  3.7731036574e+02  8.0763819175e+01  4.0000000000e+02  3.3000000000e-01 0. 9.
#pdf   11  -11  1.000000e+00  1.000000e+00  8.000000e+02  1.000000e+00  1.000000e+00
</event>
<event>
     5  9999  1.000000e+00  8.000000e+02  8.014810e-03  9.824665e-02
       11    -1     0     0     0     0  0.0000000000e+00  0.0000000000e+00  4.0000000000e+02  4.0000000000e+02  0.0000000000e+00 0. 9.
      -11    -1     0     0     0     0  0.0000000000e+00  0.0000000000e+00 -4.0000000000e+02  4.0000000000e+02  0.0000000000e+00 0. 9.
       23     2     1     2     0     0  0.0000000000e+00  0.0000000000e+00  0.0000000000e+00  8.0000000000e+02  8.0000000000e+02 0. 9.
        2     1     3     0   101     0  3.4982338742e+02 -1.0693030176e+02  1.6183139151e+02  4.0000000000e+02  3.3000000000e-01 0. 9.
       -2     1     3     0     0   101 -3.4982338742e+02  1.0693030176e+02 -1.6183139151e+02  4.0000000000e+02  3.3000000000e-01 0. 9.
#pdf   11  -11  1.000000e+00  1.000000e+00  8.000000e+02  1.000000e+00  1.000000e+00
</event>
<event>
     5  9999  1.000000e+00  8.000000e+02  8.014810e-03  9.824665e-02
       11    -1     0     0     0     0  0.0000000000e+00  0.0000000000e+00  4.0000000000e+02  4.0000000000e+02  0.0000000000e+00 0. 9.
      -11    -1     0     0     0     0  0.0000000000e+00  0.0000000000e+00 -4.0000000000e+02  4.0000000000e+02  0.0000000000e+00 0. 9.
       23     2     1     2     0     0  0.0000000000e+00  0.0000000000e+00  0.0000000000e+00  8.0000000000e+02  8.0000000000e+02 0. 9.
        2     1     3     0   101     0  1.0388188522e+01  2.5078501849e+02  3.1144638566e+02  4.0000000000e+02  3.3000000000e-01 0. 9.
       -2     1     3     0     0   101 -1.0388188522e+01 -2.5078501849e+02 -3.1144638566e+02  4.0000000000e+02  3.3000000000e-01 0. 9.
#pdf   11  -11  1.000000e+00  1.000000e+00  8.000000e+02  1.000000e+00  1.000000e+00
</event>
<event>
     5  9999  1.000000e+00  8.000000e+02  8.014810e-03  9.824665e-02
       11    -1     0     0     0     0  0.0000000000e+00  0.0000000000e+00  4.0000000000e+02  4.0000000000e+02  0.0000000000e+00 0. 9.
      -11    -1     0     0     0     0  0.0000000000e+00  0.0000000000e+00 -4.0000000000e+02  4.0000000000e+02  0.0000000000e+00 0. 9.
       23     2     1     2     0     0  0.0000000000e+00  0.0000000000e+00  0.0000000000e+00  8.0000000000e+02  8.0000000000e+02 0. 9.
        2     1     3     0   101     0 -2.2536084602e+02 -3.0419660548e+02 -1.2913870602e+02  4.0000000000e+02  3.3000000000e-01 0. 9.
       -2     1     3     0     0   101  2.2536084602e+02  3.0419660548e+02  1.2913870602e+02  4.0000000000e+02  3.3000000000e-01 0. 9.
#pdf   11  -11  1.000000e+00  1.000000e+00  8.000000e+02  1.000000e+00  1.000000e+00
</event>
<event>
     5  9999  1.000000e+00  8.000000e+02  8.014810e-03  9.824665e-02
       11    -1     0     0     0     0  0.0000000000e+00  0.0000000000e+00  4.0000000000e+02  4.0000000000e+02  0.0000000000e+00 0. 9.
      -11    -1     0     0     0     0  0.0000000000e+00  0.0000000000e+00 -4.0000000000e+02  4.0000000000e+02  0.0000000000e+00 0. 9.
       23     2     1     2     0     0  0.0000000000e+00  0.0000000000e+00  0.0000000000e+00  8.0000000000e+02  8.0000000000e+02 0. 9.
        2     1     3     0   101     0 -3.0119967784e+02  1.1511213355e+02  2.3670201072e+02  4.0000000000e+02  3.3000000000e-01 0. 9.
       -2     1     3     0     0   101  3.0119967784e+02 -1.1511213355e+02 -2.3670201072e+02  4.0000000000e+02  3.3000000000e-01 0. 9.
#pdf   11  -11  1.000000e+00  1.000000e+00  8.000000e+02  1.000000e+00  1.000000e+00
</event>
<event>
     5  9999  1.000000e+00  8.000000e+02  8.014810e-03  9.824665e-02
       11    -1     0     0     0     0  0.0000000000e+00  0.0000000000e+00  4.0000000000e+02  4.0000000000e+02  0.0000000000e+00 0. 9.
      -11    -1     0     0     0     0  0.0000000000e+00  0.0000000000e+00 -4.0000000000e+02  4.0000000000e+02  0.0000000000e+00 0. 9.
       23     2     1     2     0     0  0.0000000000e+00  0.0000000000e+00  0.0000000000e+00  8.0000000000e+02  8.0000000000e+02 0. 9.
        2     1     3     0   101     0  7.5823580632e+01 -1.3629216227e+02  3.6834104064e+02  4.0000000000e+02  3.3000000000e-01 0. 9.
       -2     1     3     0     0   101 -7.5823580632e+01  1.3629216227e+02 -3.6834104064e+02  4.0000000000e+02  3.3000000000e-01 0. 9.
#pdf   11  -11  1.000000e+00  1.000000e+00  8.000000e+02  1.000000e+00  1.000000e+00
</event>
<event>
     5  9999  1.000000e+00  8.000000e+02  8.014810e-03  9.824665e-02
       11    -1     0     0     0     0  0.0000000000e+00  0.0000000000e+00  4.0000000000e+02  4.0000000000e+02  0.0000000000e+00 0. 9.
      -11    -1     0     0     0     0  0.0000000000e+00  0.0000000000e+00 -4.0000000000e+02  4.0000000000e+02  0.0000000000e+00 0. 9.
       23     2     1     2     0     0  0.0000000000e+00  0.0000000000e+00  0.0000000000e+00  8.0000000000e+02  8.0000000000e+02 0. 9.
        2     1     3     0   101     0  1.7384031557e+01 -3.9770639370e+02  3.9080825917e+01  4.0000000000e+02  3.3000000000e-01 0. 9.
       -2     1     3     0     0   101 -1.7384031557e+01  3.9770639370e+02 -3.9080825917e+01  4.0000000000e+02  3.3000000000e-01 0. 9.
#pdf   11  -11  1.000000e+00  1.000000e+00  8.000000e+02  1.000000e+00  1.000000e+00
</event>
<event>
     5  9999  1.000000e+00  8.000000e+02  8.014810e-03  9.824665e-02
       11    -1     0     0     0     0  0.0000000000e+00  0.0000000000e+00  4.0000000000e+02  4.0000000000e+02  0.0000000000e+00 0. 9.
      -11    -1     0     0     0     0  0.0000000000e+00  0.0000000000e+00 -4.0000000000e+02  4.0000000000e+02  0.0000000000e+00 0. 9.
       23     2     1     2     0     0  0.0000000000e+00  0.0000000000e+00  0.0000000000e+00  8.0000000000e+02  8.0000000000e+02 0. 9.
        2     1     3     0   101     0 -1.2916934675e+02  8.9051851538e+01  3.6794692375e+02  4.0000000000e+02  3.3000000000e-01 0. 9.
       -2     1     3     0     0   101  1.2916934675e+02 -8.9051851538e+01 -3.6794692375e+02  4.0000000000e+02  3.3000000000e-01 0. 9.
#pdf   11  -11  1.000000e+00  1.000000e+00  8.000000e+02  1.000000e+00  1.000000e+00
</event>
<event>
     5  9999  1.000000e+00  8.000000e+02  8.014810e-03  9.824665e-02
       11    -1     0     0     0     0  0.0000000000e+00  0.0000000000e+00  4.0000000000e+02  4.0000000000e+02  0.0000000000e+00 0. 9.
      -11    -1     0     0     0     0  0.0000000000e+00  0.0000000000e+00 -4.0000000000e+02  4.0000000000e+02  0.0000000000e+00 0. 9.
       23     2     1     2     0     0  0.0000000000e+00  0.0000000000e+00  0.0000000000e+00  8.0000000000e+02  8.0000000000e+02 0. 9.
        2     1     3     0   101     0  1.0970014730e+02 -3.7205902718e+02  9.7661912108e+01  4.0000000000e+02  3.3000000000e-01 0. 9.
       -2     1     3     0     0   101 -1.0970014730e+02  3.7205902718e+02 -9.7661912108e+01  4.0000000000e+02  3.3000000000e-01 0. 9.
#pdf   11  -11  1.000000e+00  1.000000e+00  8.000000e+02  1.000000e+00  1.000000e+00
</event>
<event>
     5  9999  1.000000e+00  8.000000e+02  8.014810e-03  9.824665e-02
       11    -1     0     0     0     0  0.0000000000e+00  0.0000000000e+00  4.0000000000e+02  4.0000000000e+02  0.0000000000e+00 0. 9.
      -11    -1     0     0     0     0  0.0000000000e+00  0.0000000000e+00 -4.0000000000e+02  4.0000000000e+02  0.0000000000e+00 0. 9.
       23     2     1     2     0     0  0.0000000000e+00  0.0000000000e+00  0.0000000000e+00  8.0000000000e+02  8.0000000000e+02 0. 9.
        2     1     3     0   101     0 -2.1726280002e+02 -1.4190496601e+02  3.0440063641e+02  4.0000000000e+02  3.3000000000e-01 0. 9.
       -2     1     3     0     0   101  2.1726280002e+02  1.4190496601e+02 -3.0440063641e+02  4.0000000000e+02  3.3000000000e-01 0. 9.
#pdf   11  -11  1.000000e+00  1.000000e+00  8.000000e+02  1.000000e+00  1.000000e+00
</event>
<event>
     5  9999  1.000000e+00  8.000000e+02  8.014810e-03  9.824665e-02
       11    -1     0     0     0     0  0.0000000000e+00  0.0000000000e+00  4.0000000000e+02  4.0000000000e+02  0.0000000000e+00 0. 9.
      -11    -1     0     0     0     0  0.0000000000e+00  0.0000000000e+00 -4.0000000000e+02  4.0000000000e+02  0.0000000000e+00 0. 9.
       23     2     1     2     0     0  0.0000000000e+00  0.0000000000e+00  0.0000000000e+00  8.0000000000e+02  8.0000000000e+02 0. 9.
        2     1     3     0   101     0 -1.0876297579e+02  8.6189402233e+01  3.7515582514e+02  4.0000000000e+02  3.3000000000e-01 0. 9.
       -2     1     3     0     0   101  1.0876297579e+02 -8.6189402233e+01 -3.7515582514e+02  4.0000000000e+02  3.3000000000e-01 0. 9.
#pdf   11  -11  1.000000e+00  1.000000e+00  8.000000e+02  1.000000e+00  1.000000e+00
</event>
<event>
     5  9999  1.000000e+00  8.000000e+02  8.014810e-03  9.824665e-02
       11    -1     0     0     0     0  0.0000000000e+00  0.0000000000e+00  4.0000000000e+02  4.0000000000e+02  0.0000000000e+00 0. 9.
      -11    -1     0     0     0     0  0.0000000000e+00  0.0000000000e+00 -4.0000000000e+02  4.0000000000e+02  0.0000000000e+00 0. 9.
       23     2     1     2     0     0  0.0000000000e+00  0.0000000000e+00  0.0000000000e+00  8.0000000000e+02  8.0000000000e+02 0. 9.
        2     1     3     0   101     0  3.9376836740e+02 -3.9615931957e+01  5.8111460733e+01  4.0000000000e+02  3.3000000000e-01 0. 9.
       -2     1     3     0     0   101 -3.9376836740e+02  3.9615931957e+01 -5.8111460733e+01  4.0000000000e+02  3.3000000000e-01 0. 9.
#pdf   11  -11  1.000000e+00  1.000000e+00  8.000000e+02  1.000000e+00  1.000000e+00
</event>
<event>
     5  9999  1.000000e+00  8.000000e+02  8.014810e-03  9.824665e-02
       11    -1     0     0     0     0  0.0000000000e+00  0.0000000000e+00  4.0000000000e+02  4.0000000000e+02  0.0000000000e+00 0. 9.
      -11    -1     0     0     0     0  0.0000000000e+00  0.0000000000e+00 -4.0000000000e+02  4.0000000000e+02  0.0000000000e+00 0. 9.
       23     2     1     2     0     0  0.0000000000e+00  0.0000000000e+00  0.0000000000e+00  8.0000000000e+02  8.0000000000e+02 0. 9.
        2     1     3     0   101     0  1.8464151264e+02  2.0007791848e+02  2.9304646295e+02  4.0000000000e+02  3.3000000000e-01 0. 9.
       -2     1     3     0     0   101 -1.8464151264e+02 -2.0007791848e+02 -2.9304646295e+02  4.0000000000e+02  3.3000000000e-01 0. 9.
#pdf   11  -11  1.000000e+00  1.000000e+00  8.000000e+02  1.000000e+00  1.000000e+00
</event>
<event>
     5  9999  1.000000e+00  8.000000e+02  8.014810e-03  9.824665e-02
       11    -1     0     0     0     0  0.0000000000e+00  0.0000000000e+00  4.0000000000e+02  4.0000000000e+02  0.0000000000e+00 0. 9.
      -11    -1     0     0     0     0  0.0000000000e+00  0.0000000000e+00 -4.0000000000e+02  4.0000000000e+02  0.0000000000e+00 0. 9.
       23     2     1     2     0     0  0.0000000000e+00  0.0000000000e+00  0.0000000000e+00  8.0000000000e+02  8.0000000000e+02 0. 9.
        2     1     3     0   101     0  2.7940633365e+02  1.7732296241e+02 -2.2469659280e+02  4.0000000000e+02  3.3000000000e-01 0. 9.
       -2     1     3     0     0   101 -2.7940633365e+02 -1.7732296241e+02  2.2469659280e+02  4.0000000000e+02  3.3000000000e-01 0. 9.
#pdf   11  -11  1.000000e+00  1.000000e+00  8.000000e+02  1.000000e+00  1.000000e+00
</event>
<event>
     5  9999  1.000000e+00  8.000000e+02  8.014810e-03  9.824665e-02
       11    -1     0     0     0     0  0.0000000000e+00  0.0000000000e+00  4.0000000000e+02  4.0000000000e+02  0.0000000000e+00 0. 9.
      -11    -1     0     0     0     0  0.0000000000e+00  0.0000000000e+00 -4.0000000000e+02  4.0000000000e+02  0.0000000000e+00 0. 9.
       23     2     1     2     0     0  0.0000000000e+00  0.0000000000e+00  0.0000000000e+00  8.0000000000e+02  8.0000000000e+02 0. 9.
        2     1     3     0   101     0  1.4152937623e+02 -3.2519593808e+02  1.8497818417e+02  4.0000000000e+02  3.3000000000e-01 0. 9.
       -2     1     3     0     0   101 -1.4152937623e+02  3.2519593808e+02 -1.8497818417e+02  4.0000000000e+02  3.3000000000e-01 0. 9.
#pdf   11  -11  1.000000e+00  1.000000e+00  8.000000e+02  1.000000e+00  1.000000e+00
</event>
<event>
     5  9999  1.000000e+00  8.000000e+02  8.014810e-03  9.824665e-02
       11    -1     0     0     0     0  0.0000000000e+00  0.0000000000e+00  4.0000000000e+02  4.0000000000e+02  0.0000000000e+00 0. 9.
      -11    -1     0     0     0     0  0.0000000000e+00  0.0000000000e+00 -4.0000000000e+02  4.0000000000e+02  0.0000000000e+00 0. 9.
       23     2     1     2     0     0  0.0000000000e+00  0.0000000000e+00  0.0000000000e+00  8.0000000000e+02  8.0000000000e+02 0. 9.
        2     1     3     0   101     0  9.0454386904e+01 -2.0897437694e+02  3.2885803133e+02  4.0000000000e+02  3.3000000000e-01 0. 9.
       -2     1     3     0     0   101 -9.0454386904e+01  2.0897437694e+02 -3.2885803133e+02  4.0000000000e+02  3.3000000000e-01 0. 9.
#pdf   11  -11  1.000000e+00  1.000000e+00  8.000000e+02  1.000000e+00  1.000000e+00
</event>
<event>
     5  9999  1.000000e+00  8.000000e+02  8.014810e-03  9.824665e-02
       11    -1     0     0     0     0  0.0000000000e+00  0.0000000000e+00  4.0000000000e+02  4.0000000000e+02  0.0000000000e+00 0. 9.
      -11    -1     0     0     0     0  0.0000000000e+00  0.0000000000e+00 -4.0000000000e+02  4.0000000000e+02  0.0000000000e+00 0. 9.
       23     2     1     2     0     0  0.0000000000e+00  0.0000000000e+00  0.0000000000e+00  8.0000000000e+02  8.0000000000e+02 0. 9.
        2     1     3     0   101     0 -4.7629925872e+01  3.0060518892e+02  2.5955308061e+02  4.0000000000e+02  3.3000000000e-01 0. 9.
       -2     1     3     0     0   101  4.7629925872e+01 -3.0060518892e+02 -2.5955308061e+02  4.0000000000e+02  3.3000000000e-01 0. 9.
#pdf   11  -11  1.000000e+00  1.000000e+00  8.000000e+02  1.000000e+00  1.000000e+00
</event>
<event>
     5  9999  1.000000e+00  8.000000e+02  8.014810e-03  9.824665e-02
       11    -1     0     0     0     0  0.0000000000e+00  0.0000000000e+00  4.0000000000e+02  4.0000000000e+02  0.0000000000e+00 0. 9.
      -11    -1     0     0     0     0  0.0000000000e+00  0.0000000000e+00 -4.0000000000e+02  4.0000000000e+02  0.0000000000e+00 0. 9.
       23     2     1     2     0     0  0.0000000000e+00  0.0000000000e+00  0.0000000000e+00  8.0000000000e+02  8.0000000000e+02 0. 9.
        2     1     3     0   101     0  2.2741999143e+02  3.2219604433e+02 -6.6856171110e+01  4.0000000000e+02  3.3000000000e-01 0. 9.
       -2     1     3     0     0   101 -2.2741999143e+02 -3.2219604433e+02  6.6856171110e+01  4.0000000000e+02  3.3000000000e-01 0. 9.
#pdf   11  -11  1.000000e+00  1.000000e+00  8.000000e+02  1.000000e+00  1.000000e+00
</event>
<event>
     5  9999  1.000000e+00  8.000000e+02  8.014810e-03  9.824665e-02
       11    -1     0     0     0     0  0.0000000000e+00  0.0000000000e+00  4.0000000000e+02  4.0000000000e+02  0.0000000000e+00 0. 9.
      -11    -1     0     0     0     0  0.0000000000e+00  0.0000000000e+00 -4.0000000000e+02  4.0000000000e+02  0.0000000000e+00 0. 9.
       23     2     1     2     0     0  0.0000000000e+00  0.0000000000e+00  0.0000000000e+00  8.0000000000e+02  8.0000000000e+02 0. 9.
        2     1     3     0   101     0 -3.7189753784e+02 -8.0609092246e+01 -1.2326510739e+02  4.0000000000e+02  3.3000000000e-01 0. 9.
       -2     1     3     0     0   101  3.7189753784e+02  8.0609092246e+01  1.2326510739e+02  4.0000000000e+02  3.3000000000e-01 0. 9.
#pdf   11  -11  1.000000e+00  1.000000e+00  8.000000e+02  1.000000e+00  1.000000e+00
</event>
<event>
     5  9999  1.000000e+00  8.000000e+02  8.014810e-03  9.824665e-02
       11    -1     0     0     0     0  0.0000000000e+00  0.0000000000e+00  4.0000000000e+02  4.0000000000e+02  0.0000000000e+00 0. 9.
      -11    -1     0     0     0     0  0.0000000000e+00  0.0000000000e+00 -4.0000000000e+02  4.0000000000e+02  0.0000000000e+00 0. 9.
       23     2     1     2     0     0  0.0000000000e+00  0.0000000000e+00  0.0000000000e+00  8.0000000000e+02  8.0000000000e+02 0. 9.
        2     1     3     0   101     0 -2.4588315692e+02  1.3726318907e+02  2.8407777310e+02  4.0000000000e+02  3.3000000000e-01 0. 9.
       -2     1     3     0     0   101  2.4588315692e+02 -1.3726318907e+02 -2.8407777310e+02  4.0000000000e+02  3.3000000000e-01 0. 9.
#pdf   11  -11  1.000000e+00  1.000000e+00  8.000000e+02  1.000000e+00  1.000000e+00
</event>
<event>
     5  9999  1.000000e+00  8.000000e+02  8.014810e-03  9.824665e-02
       11    -1     0     0     0     0  0.0000000000e+00  0.0000000000e+00  4.0000000000e+02  4.0000000000e+02  0.0000000000e+00 0. 9.
      -11    -1     0     0     0     0  0.0000000000e+00  0.0000000000e+00 -4.0000000000e+02  4.0000000000e+02  0.0000000000e+00 0. 9.
       23     2     1     2     0     0  0.0000000000e+00  0.0000000000e+00  0.0000000000e+00  8.0000000000e+02  8.0000000000e+02 0. 9.
        2     1     3     0   101     0 -1.4809983256e+02  2.4857142363e+02  2.7618576729e+02  4.0000000000e+02  3.3000000000e-01 0. 9.
       -2     1     3     0     0   101  1.4809983256e+02 -2.4857142363e+02 -2.7618576729e+02  4.0000000000e+02  3.3000000000e-01 0. 9.
#pdf   11  -11  1.000000e+00  1.000000e+00  8.000000e+02  1.000000e+00  1.000000e+00
</event>
<event>
     5  9999  1.000000e+00  8.000000e+02  8.014810e-03  9.824665e-02
       11    -1     0     0     0     0  0.0000000000e+00  0.0000000000e+00  4.0000000000e+02  4.0000000000e+02  0.0000000000e+00 0. 9.
      -11    -1     0     0     0     0  0.0000000000e+00  0.0000000000e+00 -4.0000000000e+02  4.0000000000e+02  0.0000000000e+00 0. 9.
       23     2     1     2     0     0  0.0000000000e+00  0.0000000000e+00  0.0000000000e+00  8.0000000000e+02  8.0000000000e+02 0. 9.
        2     1     3     0   101     0 -1.8702412818e+02 -2.7692487368e+02  2.1985104257e+02  4.0000000000e+02  3.3000000000e-01 0. 9.
       -2     1     3     0     0   101  1.8702412818e+02  2.7692487368e+02 -2.1985104257e+02  4.0000000000e+02  3.3000000000e-01 0. 9.
#pdf   11  -11  1.000000e+00  1.000000e+00  8.000000e+02  1.000000e+00  1.000000e+00
</event>
<event>
     5  9999  1.000000e+00  8.000000e+02  8.014810e-03  9.824665e-02
       11    -1     0     0     0     0  0.0000000000e+00  0.0000000000e+00  4.0000000000e+02  4.0000000000e+02  0.0000000000e+00 0. 9.
      -11    -1     0     0     0     0  0.0000000000e+00  0.0000000000e+00 -4.0000000000e+02  4.0000000000e+02  0.0000000000e+00 0. 9.
       23     2     1     2     0     0  0.0000000000e+00  0.0000000000e+00  0.0000000000e+00  8.0000000000e+02  8.0000000000e+02 0. 9.
        2     1     3     0   101     0 -1.4149437695e+02 -3.7365211922e+02 -1.9061117284e+01  4.0000000000e+02  3.3000000000e-01 0. 9.
       -2     1     3     0     0   101  1.4149437695e+02  3.7365211922e+02  1.9061117284e+01  4.0000000000e+02  3.3000000000e-01 0. 9.
#pdf   11  -11  1.000000e+00  1.000000e+00  8.000000e+02  1.000000e+00  1.000000e+00
</event>
<event>
     5  9999  1.000000e+00  8.000000e+02  8.014810e-03  9.824665e-02
       11    -1     0     0     0     0  0.0000000000e+00  0.0000000000e+00  4.0000000000e+02  4.0000000000e+02  0.0000000000e+00 0. 9.
      -11    -1     0     0     0     0  0.0000000000e+00  0.0000000000e+00 -4.0000000000e+02  4.0000000000e+02  0.0000000000e+00 0. 9.
       23     2     1     2     0     0  0.0000000000e+00  0.0000000000e+00  0.0000000000e+00  8.0000000000e+02  8.0000000000e+02 0. 9.
        2     1     3     0   101     0 -3.0188226432e+02 -1.8233262840e+02  1.8873738955e+02  4.0000000000e+02  3.3000000000e-01 0. 9.
       -2     1     3     0     0   101  3.0188226432e+02  1.8233262840e+02 -1.8873738955e+02  4.0000000000e+02  3.3000000000e-01 0. 9.
#pdf   11  -11  1.000000e+00  1.000000e+00  8.000000e+02  1.000000e+00  1.000000e+00
</event>
<event>
     5  9999  1.000000e+00  8.000000e+02  8.014810e-03  9.824665e-02
       11    -1     0     0     0     0  0.0000000000e+00  0.0000000000e+00  4.0000000000e+02  4.0000000000e+02  0.0000000000e+00 0. 9.
      -11    -1     0     0     0     0  0.0000000000e+00  0.0000000000e+00 -4.0000000000e+02  4.0000000000e+02  0.0000000000e+00 0. 9.
       23     2     1     2     0     0  0.0000000000e+00  0.0000000000e+00  0.0000000000e+00  8.0000000000e+02  8.0000000000e+02 0. 9.
        2     1     3     0   101     0 -3.2074682510e+02  5.6556631916e+01  2.3221264538e+02  4.0000000000e+02  3.3000000000e-01 0. 9.
       -2     1     3     0     0   101  3.2074682510e+02 -5.6556631916e+01 -2.3221264538e+02  4.0000000000e+02  3.3000000000e-01 0. 9.
#pdf   11  -11  1.000000e+00  1.000000e+00  8.000000e+02  1.000000e+00  1.000000e+00
</event>
<event>
     5  9999  1.000000e+00  8.000000e+02  8.014810e-03  9.824665e-02
       11    -1     0     0     0     0  0.0000000000e+00  0.0000000000e+00  4.0000000000e+02  4.0000000000e+02  0.0000000000e+00 0. 9.
      -11    -1     0     0     0     0  0.0000000000e+00  0.0000000000e+00 -4.0000000000e+02  4.0000000000e+02  0.0000000000e+00 0. 9.
       23     2     1     2     0     0  0.0000000000e+00  0.0000000000e+00  0.0000000000e+00  8.0000000000e+02  8.0000000000e+02 0. 9.
        2     1     3     0   101     0 -2.9194509334e+02 -1.8181619243e+02  2.0423228380e+02  4.0000000000e+02  3.3000000000e-01 0. 9.
       -2     1     3     0     0   101  2.9194509334e+02  1.8181619243e+02 -2.0423228380e+02  4.0000000000e+02  3.3000000000e-01 0. 9.
#pdf   11  -11  1.000000e+00  1.000000e+00  8.000000e+02  1.000000e+00  1.000000e+00
</event>
<event>
     5  9999  1.000000e+00  8.000000e+02  8.014810e-03  9.824665e-02
       11    -1     0     0     0     0  0.0000000000e+00  0.0000000000e+00  4.0000000000e+02  4.0000000000e+02  0.0000000000e+00 0. 9.
      -11    -1     0     0     0     0  0.0000000000e+00  0.0000000000e+00 -4.0000000000e+02  4.0000000000e+02  0.0000000000e+00 0. 9.
       23     2     1     2     0     0  0.0000000000e+00  0.0000000000e+00  0.0000000000e+00  8.0000000000e+02  8.0000000000e+02 0. 9.
        2     1     3     0   101     0  5.1341261897e+01  1.5454413173e+02 -3.6534925383e+02  4.0000000000e+02  3.3000000000e-01 0. 9.
       -2     1     3     0     0   101 -5.1341261897e+01 -1.5454413173e+02  3.6534925383e+02  4.0000000000e+02  3.3000000000e-01 0. 9.
#pdf   11  -11  1.000000e+00  1.000000e+00  8.000000e+02  1.000000e+00  1.000000e+00
</event>
<event>
     5  9999  1.000000e+00  8.000000e+02  8.014810e-03  9.824665e-02
       11    -1     0     0     0     0  0.0000000000e+00  0.0000000000e+00  4.0000000000e+02  4.0000000000e+02  0.0000000000e+00 0. 9.
      -11    -1     0     0     0     0  0.0000000000e+00  0.0000000000e+00 -4.0000000000e+02  4.0000000000e+02  0.0000000000e+00 0. 9.
       23     2     1     2     0     0  0.0000000000e+00  0.0000000000e+00  0.0000000000e+00  8.0000000000e+02  8.0000000000e+02 0. 9.
        2     1     3     0   101     0  3.9030726336e+02 -8.5474535567e+01  1.8821132706e+01  4.0000000000e+02  3.3000000000e-01 0. 9.
       -2     1     3     0     0   101 -3.9030726336e+02  8.5474535567e+01 -1.8821132706e+01  4.0000000000e+02  3.3000000000e-01 0. 9.
#pdf   11  -11  1.000000e+00  1.000000e+00  8.000000e+02  1.000000e+00  1.000000e+00
</event>
<event>
     5  9999  1.000000e+00  8.000000e+02  8.014810e-03  9.824665e-02
       11    -1     0     0     0     0  0.0000000000e+00  0.0000000000e+00  4.0000000000e+02  4.0000000000e+02  0.0000000000e+00 0. 9.
      -11    -1     0     0     0     0  0.0000000000e+00  0.0000000000e+00 -4.0000000000e+02  4.0000000000e+02  0.0000000000e+00 0. 9.
       23     2     1     2     0     0  0.0000000000e+00  0.0000000000e+00  0.0000000000e+00  8.0000000000e+02  8.0000000000e+02 0. 9.
        2     1     3     0   101     0  7.8996916144e+01 -1.6334258876e+02  3.5648082282e+02  4.0000000000e+02  3.3000000000e-01 0. 9.
       -2     1     3     0     0   101 -7.8996916144e+01  1.6334258876e+02 -3.5648082282e+02  4.0000000000e+02  3.3000000000e-01 0. 9.
#pdf   11  -11  1.000000e+00  1.000000e+00  8.000000e+02  1.000000e+00  1.000000e+00
</event>
<event>
     5  9999  1.000000e+00  8.000000e+02  8.014810e-03  9.824665e-02
       11    -1     0     0     0     0  0.0000000000e+00  0.0000000000e+00  4.0000000000e+02  4.0000000000e+02  0.0000000000e+00 0. 9.
      -11    -1     0     0     0     0  0.0000000000e+00  0.0000000000e+00 -4.0000000000e+02  4.0000000000e+02  0.0000000000e+00 0. 9.
       23     2     1     2     0     0  0.0000000000e+00  0.0000000000e+00  0.0000000000e+00  8.0000000000e+02  8.0000000000e+02 0. 9.
        2     1     3     0   101     0  2.7001923037e+02  2.7271166109e+02  1.1277347309e+02  4.0000000000e+02  3.3000000000e-01 0. 9.
       -2     1     3     0     0   101 -2.7001923037e+02 -2.7271166109e+02 -1.1277347309e+02  4.0000000000e+02  3.3000000000e-01 0. 9.
#pdf   11  -11  1.000000e+00  1.000000e+00  8.000000e+02  1.000000e+00  1.000000e+00
</event>
<event>
     5  9999  1.000000e+00  8.000000e+02  8.014810e-03  9.824665e-02
       11    -1     0     0     0     0  0.0000000000e+00  0.0000000000e+00  4.0000000000e+02  4.0000000000e+02  0.0000000000e+00 0. 9.
      -11    -1     0     0     0     0  0.0000000000e+00  0.0000000000e+00 -4.0000000000e+02  4.0000000000e+02  0.0000000000e+00 0. 9.
       23     2     1     2     0     0  0.0000000000e+00  0.0000000000e+00  0.0000000000e+00  8.0000000000e+02  8.0000000000e+02 0. 9.
        2     1     3     0   101     0  1.6688249221e+02  3.3692368555e+02  1.3650111723e+02  4.0000000000e+02  3.3000000000e-01 0. 9.
       -2     1     3     0     0   101 -1.6688249221e+02 -3.3692368555e+02 -1.3650111723e+02  4.0000000000e+02  3.3000000000e-01 0. 9.
#pdf   11  -11  1.000000e+00  1.000000e+00  8.000000e+02  1.000000e+00  1.000000e+00
</event>
<event>
     5  9999  1.000000e+00  8.000000e+02  8.014810e-03  9.824665e-02
       11    -1     0     0     0     0  0.0000000000e+00  0.0000000000e+00  4.0000000000e+02  4.0000000000e+02  0.0000000000e+00 0. 9.
      -11    -1     0     0     0     0  0.0000000000e+00  0.0000000000e+00 -4.0000000000e+02  4.0000000000e+02  0.0000000000e+00 0. 9.
       23     2     1     2     0     0  0.0000000000e+00  0.0000000000e+00  0.0000000000e+00  8.0000000000e+02  8.0000000000e+02 0. 9.
        2     1     3     0   101     0 -2.9885022375e+02  2.3956278004e+02 -1.1531742836e+02  4.0000000000e+02  3.3000000000e-01 0. 9.
       -2     1     3     0     0   101  2.9885022375e+02 -2.3956278004e+02  1.1531742836e+02  4.0000000000e+02  3.3000000000e-01 0. 9.
#pdf   11  -11  1.000000e+00  1.000000e+00  8.000000e+02  1.000000e+00  1.000000e+00
</event>
<event>
     5  9999  1.000000e+00  8.000000e+02  8.014810e-03  9.824665e-02
       11    -1     0     0     0     0  0.0000000000e+00  0.0000000000e+00  4.0000000000e+02  4.0000000000e+02  0.0000000000e+00 0. 9.
      -11    -1     0     0     0     0  0.0000000000e+00  0.0000000000e+00 -4.0000000000e+02  4.0000000000e+02  0.0000000000e+00 0. 9.
       23     2     1     2     0     0  0.0000000000e+00  0.0000000000e+00  0.0000000000e+00  8.0000000000e+02  8.0000000000e+02 0. 9.
        2     1     3     0   101     0  8.3641562337e+01 -3.4134156110e+02  1.9102334626e+02  4.0000000000e+02  3.3000000000e-01 0. 9.
       -2     1     3     0     0   101 -8.3641562337e+01  3.4134156110e+02 -1.9102334626e+02  4.0000000000e+02  3.3000000000e-01 0. 9.
#pdf   11  -11  1.000000e+00  1.000000e+00  8.000000e+02  1.000000e+00  1.000000e+00
</event>
<event>
     5  9999  1.000000e+00  8.000000e+02  8.014810e-03  9.824665e-02
       11    -1     0     0     0     0  0.0000000000e+00  0.0000000000e+00  4.0000000000e+02  4.0000000000e+02  0.0000000000e+00 0. 9.
      -11    -1     0     0     0     0  0.0000000000e+00  0.0000000000e+00 -4.0000000000e+02  4.0000000000e+02  0.0000000000e+00 0. 9.
       23     2     1     2     0     0  0.0000000000e+00  0.0000000000e+00  0.0000000000e+00  8.0000000000e+02  8.0000000000e+02 0. 9.
        2     1     3     0   101     0  1.4472117883e+02  2.1004635310e+02  3.0811718720e+02  4.0000000000e+02  3.3000000000e-01 0. 9.
       -2     1     3     0     0   101 -1.4472117883e+02 -2.1004635310e+02 -3.0811718720e+02  4.0000000000e+02  3.3000000000e-01 0. 9.
#pdf   11  -11  1.000000e+00  1.000000e+00  8.000000e+02  1.000000e+00  1.000000e+00
</event>
<event>
     5  9999  1.000000e+00  8.000000e+02  8.014810e-03  9.824665e-02
       11    -1     0     0     0     0  0.0000000000e+00  0.0000000000e+00  4.0000000000e+02  4.0000000000e+02  0.0000000000e+00 0. 9.
      -11    -1     0     0     0     0  0.0000000000e+00  0.0000000000e+00 -4.0000000000e+02  4.0000000000e+02  0.0000000000e+00 0. 9.
       23     2     1     2     0     0  0.0000000000e+00  0.0000000000e+00  0.0000000000e+00  8.0000000000e+02  8.0000000000e+02 0. 9.
        2     1     3     0   101     0  2.9921999325e+02  1.1311432486e+02  2.4015086144e+02  4.0000000000e+02  3.3000000000e-01 0. 9.
       -2     1     3     0     0   101 -2.9921999325e+02 -1.1311432486e+02 -2.4015086144e+02  4.0000000000e+02  3.3000000000e-01 0. 9.
#pdf   11  -11  1.000000e+00  1.000000e+00  8.000000e+02  1.000000e+00  1.000000e+00
</event>
<event>
     5  9999  1.000000e+00  8.000000e+02  8.014810e-03  9.824665e-02
       11    -1     0     0     0     0  0.0000000000e+00  0.0000000000e+00  4.0000000000e+02  4.0000000000e+02  0.0000000000e+00 0. 9.
      -11    -1     0     0     0     0  0.0000000000e+00  0.0000000000e+00 -4.0000000000e+02  4.0000000000e+02  0.0000000000e+00 0. 9.
       23     2     1     2     0     0  0.0000000000e+00  0.0000000000e+00  0.0000000000e+00  8.0000000000e+02  8.0000000000e+02 0. 9.
        2     1     3     0   101     0 -3.8062792791e+01 -8.3085324317e+00  3.9809808238e+02  4.0000000000e+02  3.3000000000e-01 0. 9.
       -2     1     3     0     0   101  3.8062792791e+01  8.3085324317e+00 -3.9809808238e+02  4.0000000000e+02  3.3000000000e-01 0. 9.
#pdf   11  -11  1.000000e+00  1.000000e+00  8.000000e+02  1.000000e+00  1.000000e+00
</event>
<event>
     5  9999  1.000000e+00  8.000000e+02  8.014810e-03  9.824665e-02
       11    -1     0     0     0     0  0.0000000000e+00  0.0000000000e+00  4.0000000000e+02  4.0000000000e+02  0.0000000000e+00 0. 9.
      -11    -1     0     0     0     0  0.0000000000e+00  0.0000000000e+00 -4.0000000000e+02  4.0000000000e+02  0.0000000000e+00 0. 9.
       23     2     1     2     0     0  0.0000000000e+00  0.0000000000e+00  0.0000000000e+00  8.0000000000e+02  8.0000000000e+02 0. 9.
        2     1     3     0   101     0 -5.0541002598e+01  1.7756197801e+02  3.5484819588e+02  4.0000000000e+02  3.3000000000e-01 0. 9.
       -2     1     3     0     0   101  5.0541002598e+01 -1.7756197801e+02 -3.5484819588e+02  4.0000000000e+02  3.3000000000e-01 0. 9.
#pdf   11  -11  1.000000e+00  1.000000e+00  8.000000e+02  1.000000e+00  1.000000e+00
</event>
<event>
     5  9999  1.000000e+00  8.000000e+02  8.014810e-03  9.824665e-02
       11    -1     0     0     0     0  0.0000000000e+00  0.0000000000e+00  4.0000000000e+02  4.0000000000e+02  0.0000000000e+00 0. 9.
      -11    -1     0     0     0     0  0.0000000000e+00  0.0000000000e+00 -4.0000000000e+02  4.0000000000e+02  0.0000000000e+00 0. 9.
       23     2     1     2     0     0  0.0000000000e+00  0.0000000000e+00  0.0000000000e+00  8.0000000000e+02  8.0000000000e+02 0. 9.
        2     1     3     0   101     0  1.7562405835e+02 -3.4190534063e+02  1.1071052017e+02  4.0000000000e+02  3.3000000000e-01 0. 9.
       -2     1     3     0     0   101 -1.7562405835e+02  3.4190534063e+02 -1.1071052017e+02  4.0000000000e+02  3.3000000000e-01 0. 9.
#pdf   11  -11  1.000000e+00  1.000000e+00  8.000000e+02  1.000000e+00  1.000000e+00
</event>
<event>
     5  9999  1.000000e+00  8.000000e+02  8.014810e-03  9.824665e-02
       11    -1     0     0     0     0  0.0000000000e+00  0.0000000000e+00  4.0000000000e+02  4.0000000000e+02  0.0000000000e+00 0. 9.
      -11    -1     0     0     0     0  0.0000000000e+00  0.0000000000e+00 -4.0000000000e+02  4.0000000000e+02  0.0000000000e+00 0. 9.
       23     2     1     2     0     0  0.0000000000e+00  0.0000000000e+00  0.0000000000e+00  8.0000000000e+02  8.0000000000e+02 0. 9.
        2     1     3     0   101     0 -3.8962565745e+02  6.8322468105e+01 -5.9361422748e+01  4.0000000000e+02  3.3000000000e-01 0. 9.
       -2     1     3     0     0   101  3.8962565745e+02 -6.8322468105e+01  5.9361422748e+01  4.0000000000e+02  3.3000000000e-01 0. 9.
#pdf   11  -11  1.000000e+00  1.000000e+00  8.000000e+02  1.000000e+00  1.000000e+00
</event>
<event>
     5  9999  1.000000e+00  8.000000e+02  8.014810e-03  9.824665e-02
       11    -1     0     0     0     0  0.0000000000e+00  0.0000000000e+00  4.0000000000e+02  4.0000000000e+02  0.0000000000e+00 0. 9.
      -11    -1     0     0     0     0  0.0000000000e+00  0.0000000000e+00 -4.0000000000e+02  4.0000000000e+02  0.0000000000e+00 0. 9.
       23     2     1     2     0     0  0.0000000000e+00  0.0000000000e+00  0.0000000000e+00  8.0000000000e+02  8.0000000000e+02 0. 9.
        2     1     3     0   101     0 -2.4970873202e+02 -1.0138989415e+02  2.9557660533e+02  4.0000000000e+02  3.3000000000e-01 0. 9.
       -2     1     3     0     0   101  2.4970873202e+02  1.0138989415e+02 -2.9557660533e+02  4.0000000000e+02  3.3000000000e-01 0. 9.
#pdf   11  -11  1.000000e+00  1.000000e+00  8.000000e+02  1.000000e+00  1.000000e+00
</event>
<event>
     5  9999  1.000000e+00  8.000000e+02  8.014810e-03  9.824665e-02
       11    -1     0     0     0     0  0.0000000000e+00  0.0000000000e+00  4.0000000000e+02  4.0000000000e+02  0.0000000000e+00 0. 9.
      -11    -1     0     0     0     0  0.0000000000e+00  0.0000000000e+00 -4.0000000000e+02  4.0000000000e+02  0.0000000000e+00 0. 9.
       23     2     1     2     0     0  0.0000000000e+00  0.0000000000e+00  0.0000000000e+00  8.0000000000e+02  8.0000000000e+02 0. 9.
        2     1     3     0   101     0  2.0442896452e+02 -1.9710935806e+02  2.8170301832e+02  4.0000000000e+02  3.3000000000e-01 0. 9.
       -2     1     3     0     0   101 -2.0442896452e+02  1.9710935806e+02 -2.8170301832e+02  4.0000000000e+02  3.3000000000e-01 0. 9.
#pdf   11  -11  1.000000e+00  1.000000e+00  8.000000e+02  1.000000e+00  1.000000e+00
</event>
<event>
     5  9999  1.000000e+00  8.000000e+02  8.014810e-03  9.824665e-02
       11    -1     0     0     0     0  0.0000000000e+00  0.0000000000e+00  4.0000000000e+02  4.0000000000e+02  0.0000000000e+00 0. 9.
      -11    -1     0     0     0     0  0.0000000000e+00  0.0000000000e+00 -4.0000000000e+02  4.0000000000e+02  0.0000000000e+00 0. 9.
       23     2     1     2     0     0  0.0000000000e+00  0.0000000000e+00  0.0000000000e+00  8.0000000000e+02  8.0000000000e+02 0. 9.
        2     1     3     0   101     0 -1.9037396240e+02  1.7035783061e+02  3.0779190225e+02  4.0000000000e+02  3.3000000000e-01 0. 9.
       -2     1     3     0     0   101  1.9037396240e+02 -1.7035783061e+02 -3.0779190225e+02  4.0000000000e+02  3.3000000000e-01 0. 9.
#pdf   11  -11  1.000000e+00  1.000000e+00  8.000000e+02  1.000000e+00  1.000000e+00
</event>
</LesHouchesEvents>
